
 DBCSR| CPU Multiplication driver                                           XSMM (U)
 DBCSR| Multrec recursion limit                                              512 (U)
 DBCSR| Multiplication stack size                                           1000 (D)
 DBCSR| Maximum elements for images                                    UNLIMITED (U)
 DBCSR| Multiplicative factor virtual images                                   1 (U)
 DBCSR| Use multiplication densification                                       T (D)
 DBCSR| Multiplication size stacks                                             3 (U)
 DBCSR| Use memory pool for CPU allocation                                     F (U)
 DBCSR| Number of 3D layers                                               SINGLE (U)
 DBCSR| Use MPI memory allocation                                              F (U)
 DBCSR| Use RMA algorithm                                                      F (U)
 DBCSR| Use Communication thread                                               T (U)
 DBCSR| Communication thread load                                             83 (D)
 DBCSR| MPI: My process id                                                     0
 DBCSR| MPI: Number of processes                                              90
 DBCSR| OMP: Current number of threads                                         2
 DBCSR| OMP: Max number of threads                                             2
 DBCSR| Split modifier for TAS multiplication algorithm                  1.0E+00 (U)


  **** **** ******  **  PROGRAM STARTED AT               2024-02-29 07:02:51.067
 ***** ** ***  *** **   PROGRAM STARTED ON                          2a5cbcd1c14c
 **    ****   ******    PROGRAM STARTED BY                             <unknown>
 ***** **    ** ** **   PROGRAM PROCESS ID                                   538
  **** **  *******  **  PROGRAM STARTED IN                                  /mnt

 CP2K| version string:                                       CP2K version 2023.2
 CP2K| source code revision number:                                  git:65cca6c
 CP2K| cp2kflags: omp libint fftw3 libxc pexsi elpa parallel scalapack cosma qui
 CP2K|            p xsmm plumed2 spglib sirius libvori libbqb libtorch libvdwxc
 CP2K| is freely available from                            https://www.cp2k.org/
 CP2K| Program compiled at                          Wed Oct 18 11:40:41 UTC 2023
 CP2K| Program compiled on                                          633bb7bf566f
 CP2K| Program compiled for                                                local
 CP2K| Data directory path                                        /opt/cp2k/data
 CP2K| Input file name                                             4amp33_geo.in

 GLOBAL| Force Environment number                                              1
 GLOBAL| Basis set file name                                      GTH_BASIS_SETS
 GLOBAL| Potential file name                                           POTENTIAL
 GLOBAL| MM Potential file name                                     MM_POTENTIAL
 GLOBAL| Coordinate file name                                      __STD_INPUT__
 GLOBAL| Method name                                                        CP2K
 GLOBAL| Project name                                                  4amp33geo
 GLOBAL| Run type                                                        GEO_OPT
 GLOBAL| FFT library                                                       FFTW3
 GLOBAL| Diagonalization library                                       ScaLAPACK
 GLOBAL| DGEMM library                                                      BLAS
 GLOBAL| Orthonormality check for eigenvectors                          DISABLED
 GLOBAL| Matrix multiplication library                                     COSMA
 GLOBAL| All-to-all communication in single precision                          F
 GLOBAL| FFTs using library dependent lengths                                  F
 GLOBAL| Grid backend                                                       AUTO
 GLOBAL| Global print level                                               MEDIUM
 GLOBAL| MPI I/O enabled                                                       T
 GLOBAL| Total number of message passing processes                            90
 GLOBAL| Number of threads for this process                                    2
 GLOBAL| This output is from process                                           0
 GLOBAL| Stack size for threads created by OpenMP (OMP_STACKSIZE)            16M
 GLOBAL| CPU model name                                            AMD EPYC 9B14
 GLOBAL| CPUID                                                              1003
 GLOBAL| Compiled for CPUID                                                    0

 *** HINT in environment.F:904 :: The compiler target flags (generic) used ***
 *** to build this binary cannot exploit all extensions of this CPU model  ***
 *** (x86_avx512). Consider compiler target flags as part of FCFLAGS and   ***
 *** CFLAGS (ARCH file).                                                   ***


 MEMORY| system memory details [Kb]
 MEMORY|                        rank 0           min           max       average
 MEMORY| MemTotal            365023344     365023344     365023344     365023344
 MEMORY| MemFree             351399144     351399144     351399144     351399144
 MEMORY| Buffers                 19552         19552         19552         19552
 MEMORY| Cached                 853596        853596        853596        853596
 MEMORY| Slab                   388496        388496        388496        388496
 MEMORY| SReclaimable            81820         81820         81820         81820
 MEMORY| MemLikelyFree       352354112     352354112     352354112     352354112


 *** Fundamental physical constants (SI units) ***

 *** Literature: B. J. Mohr and B. N. Taylor,
 ***             CODATA recommended values of the fundamental physical
 ***             constants: 2006, Web Version 5.1
 ***             http://physics.nist.gov/constants

 Speed of light in vacuum [m/s]                             2.99792458000000E+08
 Magnetic constant or permeability of vacuum [N/A**2]       1.25663706143592E-06
 Electric constant or permittivity of vacuum [F/m]          8.85418781762039E-12
 Planck constant (h) [J*s]                                  6.62606896000000E-34
 Planck constant (h-bar) [J*s]                              1.05457162825177E-34
 Elementary charge [C]                                      1.60217648700000E-19
 Electron mass [kg]                                         9.10938215000000E-31
 Electron g factor [ ]                                     -2.00231930436220E+00
 Proton mass [kg]                                           1.67262163700000E-27
 Fine-structure constant                                    7.29735253760000E-03
 Rydberg constant [1/m]                                     1.09737315685270E+07
 Avogadro constant [1/mol]                                  6.02214179000000E+23
 Boltzmann constant [J/K]                                   1.38065040000000E-23
 Atomic mass unit [kg]                                      1.66053878200000E-27
 Bohr radius [m]                                            5.29177208590000E-11

 *** Conversion factors ***

 [u] -> [a.u.]                                              1.82288848426455E+03
 [Angstrom] -> [Bohr] = [a.u.]                              1.88972613288564E+00
 [a.u.] = [Bohr] -> [Angstrom]                              5.29177208590000E-01
 [a.u.] -> [s]                                              2.41888432650478E-17
 [a.u.] -> [fs]                                             2.41888432650478E-02
 [a.u.] -> [J]                                              4.35974393937059E-18
 [a.u.] -> [N]                                              8.23872205491840E-08
 [a.u.] -> [K]                                              3.15774647902944E+05
 [a.u.] -> [kJ/mol]                                         2.62549961709828E+03
 [a.u.] -> [kcal/mol]                                       6.27509468713739E+02
 [a.u.] -> [Pa]                                             2.94210107994716E+13
 [a.u.] -> [bar]                                            2.94210107994716E+08
 [a.u.] -> [atm]                                            2.90362800883016E+08
 [a.u.] -> [eV]                                             2.72113838565563E+01
 [a.u.] -> [Hz]                                             6.57968392072181E+15
 [a.u.] -> [1/cm] (wave numbers)                            2.19474631370540E+05
 [a.u./Bohr**2] -> [1/cm]                                   5.14048714338585E+03
 

 CELL_TOP| Volume [angstrom^3]:                                       962.420880
 CELL_TOP| Vector a [angstrom     5.642     0.000     0.000   |a| =     5.642300
 CELL_TOP| Vector b [angstrom     1.127    10.114     0.000   |b| =    10.176500
 CELL_TOP| Vector c [angstrom     2.234     4.068    16.865   |c| =    17.491900
 CELL_TOP| Angle (b,c), alpha [degree]:                                75.803000
 CELL_TOP| Angle (a,c), beta  [degree]:                                82.664000
 CELL_TOP| Angle (a,b), gamma [degree]:                                83.643000
 CELL_TOP| Numerically orthorhombic:                                          NO
 CELL_TOP| Periodicity                                                       XYZ

 GENERATE|  Preliminary Number of Bonds generated:                             0
 GENERATE|  Achieved consistency in connectivity generation.

 CELL| Volume [angstrom^3]:                                           962.420880
 CELL| Vector a [angstrom]:       5.642     0.000     0.000   |a| =     5.642300
 CELL| Vector b [angstrom]:       1.127    10.114     0.000   |b| =    10.176500
 CELL| Vector c [angstrom]:       2.234     4.068    16.865   |c| =    17.491900
 CELL| Angle (b,c), alpha [degree]:                                    75.803000
 CELL| Angle (a,c), beta  [degree]:                                    82.664000
 CELL| Angle (a,b), gamma [degree]:                                    83.643000
 CELL| Numerically orthorhombic:                                              NO
 CELL| Periodicity                                                           XYZ

 CELL_REF| Volume [angstrom^3]:                                       962.420880
 CELL_REF| Vector a [angstrom     5.642     0.000     0.000   |a| =     5.642300
 CELL_REF| Vector b [angstrom     1.127    10.114     0.000   |b| =    10.176500
 CELL_REF| Vector c [angstrom     2.234     4.068    16.865   |c| =    17.491900
 CELL_REF| Angle (b,c), alpha [degree]:                                75.803000
 CELL_REF| Angle (a,c), beta  [degree]:                                82.664000
 CELL_REF| Angle (a,b), gamma [degree]:                                83.643000
 CELL_REF| Numerically orthorhombic:                                          NO
 CELL_REF| Periodicity                                                       XYZ

 *******************************************************************************
 *******************************************************************************
 **                                                                           **
 **     #####                         ##              ##                      **
 **    ##   ##            ##          ##              ##                      **
 **   ##     ##                       ##            ######                    **
 **   ##     ##  ##   ##  ##   #####  ##  ##   ####   ##    #####    #####    **
 **   ##     ##  ##   ##  ##  ##      ## ##   ##      ##   ##   ##  ##   ##   **
 **   ##  ## ##  ##   ##  ##  ##      ####     ###    ##   ######   ######    **
 **    ##  ###   ##   ##  ##  ##      ## ##      ##   ##   ##       ##        **
 **     #######   #####   ##   #####  ##  ##  ####    ##    #####   ##        **
 **           ##                                                    ##        **
 **                                                                           **
 **                                                ... make the atoms dance   **
 **                                                                           **
 **            Copyright (C) by CP2K developers group (2000-2023)             **
 **                      J. Chem. Phys. 152, 194103 (2020)                    **
 **                                                                           **
 *******************************************************************************

 DFT| Spin restricted Kohn-Sham (RKS) calculation                            RKS
 DFT| Multiplicity                                                             1
 DFT| Number of spin states                                                    1
 DFT| Charge                                                                   0
 DFT| Self-interaction correction (SIC)                                       NO
 DFT| Cutoffs: density                                              1.000000E-10
 DFT|          gradient                                             1.000000E-10
 DFT|          tau                                                  1.000000E-10
 DFT|          cutoff_smoothing_range                               0.000000E+00
 DFT| XC density smoothing                                                  NONE
 DFT| XC derivatives                                                          PW

 FUNCTIONAL| PBE:
 FUNCTIONAL| J.P.Perdew, K.Burke, M.Ernzerhof, Phys. Rev. Letter, vol. 77, n 18,
 FUNCTIONAL|  pp. 3865-3868, (1996){spin unpolarized}                           

 vdW POTENTIAL|                                                   Pair Potential
 vdW POTENTIAL|          DFT-D3 (Version 3.1)
 vdW POTENTIAL|          Potential Form: S. Grimme et al, JCP 132: 154104 (2010)
 vdW POTENTIAL|          BJ Damping: S. Grimme et al, JCC 32: 1456 (2011)
 vdW POTENTIAL|          Cutoff Radius [Bohr]:                             30.24
 vdW POTENTIAL|          s6 Scaling Factor:                               1.0000
 vdW POTENTIAL|          a1 Damping Factor:                               0.4289
 vdW POTENTIAL|          s8 Scaling Factor:                               0.7875
 vdW POTENTIAL|          a2 Damping Factor:                               4.4407
 vdW POTENTIAL|          Cutoff for CN calculation:                   0.1000E-05

 QS| Method:                                                                 GPW
 QS| Density plane wave grid type                        NON-SPHERICAL FULLSPACE
 QS| Number of grid levels:                                                    4
 QS| Density cutoff [a.u.]:                                                200.0
 QS| Multi grid cutoff [a.u.]: 1) grid level                               200.0
 QS|                           2) grid level                                66.7
 QS|                           3) grid level                                22.2
 QS|                           4) grid level                                 7.4
 QS| Grid level progression factor:                                          3.0
 QS| Relative density cutoff [a.u.]:                                        30.0
 QS| Interaction thresholds: eps_pgf_orb:                                1.0E-05
 QS|                         eps_filter_matrix:                          0.0E+00
 QS|                         eps_core_charge:                            1.0E-12
 QS|                         eps_rho_gspace:                             1.0E-10
 QS|                         eps_rho_rspace:                             1.0E-10
 QS|                         eps_gvg_rspace:                             1.0E-05
 QS|                         eps_ppl:                                    1.0E-02
 QS|                         eps_ppnl:                                   1.0E-07


 ATOMIC KIND INFORMATION

  1. Atomic kind: O                                     Number of atoms:       2

     Orbital Basis Set                                               TZVP-GTH-q6

       Number of orbital shell sets:                                           2
       Number of orbital shells:                                               7
       Number of primitive Cartesian functions:                                6
       Number of Cartesian basis functions:                                   18
       Number of spherical basis functions:                                   17
       Norm type:                                                              2

       Normalised Cartesian orbitals:

                        Set   Shell   Orbital            Exponent    Coefficient

                          1       1    2s               10.267442       0.404544
                                                         3.748050       0.199889
                                                         1.330834      -0.336302
                                                         0.455680      -0.246356
                                                         0.146292      -0.028287

                          1       2    3s               10.267442       0.000000
                                                         3.748050       0.000000
                                                         1.330834       0.000000
                                                         0.455680       0.395280
                                                         0.146292       0.000000

                          1       3    4s               10.267442       0.000000
                                                         3.748050       0.000000
                                                         1.330834       0.000000
                                                         0.455680       0.000000
                                                         0.146292       0.168588

                          1       4    3px              10.267442      -1.561025
                                                         3.748050      -1.394275
                                                         1.330834      -0.754014
                                                         0.455680      -0.224400
                                                         0.146292      -0.029841
                          1       4    3py              10.267442      -1.561025
                                                         3.748050      -1.394275
                                                         1.330834      -0.754014
                                                         0.455680      -0.224400
                                                         0.146292      -0.029841
                          1       4    3pz              10.267442      -1.561025
                                                         3.748050      -1.394275
                                                         1.330834      -0.754014
                                                         0.455680      -0.224400
                                                         0.146292      -0.029841

                          1       5    4px              10.267442       0.000000
                                                         3.748050       0.000000
                                                         1.330834       0.000000
                                                         0.455680       0.533661
                                                         0.146292       0.000000
                          1       5    4py              10.267442       0.000000
                                                         3.748050       0.000000
                                                         1.330834       0.000000
                                                         0.455680       0.533661
                                                         0.146292       0.000000
                          1       5    4pz              10.267442       0.000000
                                                         3.748050       0.000000
                                                         1.330834       0.000000
                                                         0.455680       0.533661
                                                         0.146292       0.000000

                          1       6    5px              10.267442       0.000000
                                                         3.748050       0.000000
                                                         1.330834       0.000000
                                                         0.455680       0.000000
                                                         0.146292       0.128963
                          1       6    5py              10.267442       0.000000
                                                         3.748050       0.000000
                                                         1.330834       0.000000
                                                         0.455680       0.000000
                                                         0.146292       0.128963
                          1       6    5pz              10.267442       0.000000
                                                         3.748050       0.000000
                                                         1.330834       0.000000
                                                         0.455680       0.000000
                                                         0.146292       0.128963

                          2       1    3dx2              1.185000       2.215218
                          2       1    3dxy              1.185000       3.836871
                          2       1    3dxz              1.185000       3.836871
                          2       1    3dy2              1.185000       2.215218
                          2       1    3dyz              1.185000       3.836871
                          2       1    3dz2              1.185000       2.215218

       Atomic covalent radius [Angstrom]:                                  0.730

       Atomic van der Waals radius [Angstrom]:                             1.520

     GTH Potential information for                                       GTH-PBE

       Description:                       Goedecker-Teter-Hutter pseudopotential
                                           Goedecker et al., PRB 54, 1703 (1996)
                                          Hartwigsen et al., PRB 58, 3641 (1998)
                                                      Krack, TCA 114, 145 (2005)

       Gaussian exponent of the core charge distribution:               8.360253
       Electronic configuration (s p d ...):                               2   4

       Parameters of the local part of the GTH pseudopotential:

                          rloc        C1          C2          C3          C4
                        0.244554  -16.667215    2.487311

       Parameters of the non-local part of the GTH pseudopotential:

                   l      r(l)      h(i,j,l)

                   0    0.220956   18.337458
                   1    0.211332

  2. Atomic kind: N                                     Number of atoms:       2

     Orbital Basis Set                                               TZVP-GTH-q5

       Number of orbital shell sets:                                           2
       Number of orbital shells:                                               7
       Number of primitive Cartesian functions:                                6
       Number of Cartesian basis functions:                                   18
       Number of spherical basis functions:                                   17
       Norm type:                                                              2

       Normalised Cartesian orbitals:

                        Set   Shell   Orbital            Exponent    Coefficient

                          1       1    2s                7.622745       0.321703
                                                         2.797061       0.161118
                                                         0.990977      -0.264934
                                                         0.341731      -0.199987
                                                         0.111682      -0.023066

                          1       2    3s                7.622745       0.000000
                                                         2.797061       0.000000
                                                         0.990977       0.000000
                                                         0.341731       0.318547
                                                         0.111682       0.000000

                          1       3    4s                7.622745       0.000000
                                                         2.797061       0.000000
                                                         0.990977       0.000000
                                                         0.341731       0.000000
                                                         0.111682       0.137689

                          1       4    3px               7.622745      -1.014025
                                                         2.797061      -0.927144
                                                         0.990977      -0.514975
                                                         0.341731      -0.158623
                                                         0.111682      -0.021774
                          1       4    3py               7.622745      -1.014025
                                                         2.797061      -0.927144
                                                         0.990977      -0.514975
                                                         0.341731      -0.158623
                                                         0.111682      -0.021774
                          1       4    3pz               7.622745      -1.014025
                                                         2.797061      -0.927144
                                                         0.990977      -0.514975
                                                         0.341731      -0.158623
                                                         0.111682      -0.021774

                          1       5    4px               7.622745       0.000000
                                                         2.797061       0.000000
                                                         0.990977       0.000000
                                                         0.341731       0.372431
                                                         0.111682       0.000000
                          1       5    4py               7.622745       0.000000
                                                         2.797061       0.000000
                                                         0.990977       0.000000
                                                         0.341731       0.372431
                                                         0.111682       0.000000
                          1       5    4pz               7.622745       0.000000
                                                         2.797061       0.000000
                                                         0.990977       0.000000
                                                         0.341731       0.372431
                                                         0.111682       0.000000

                          1       6    5px               7.622745       0.000000
                                                         2.797061       0.000000
                                                         0.990977       0.000000
                                                         0.341731       0.000000
                                                         0.111682       0.092028
                          1       6    5py               7.622745       0.000000
                                                         2.797061       0.000000
                                                         0.990977       0.000000
                                                         0.341731       0.000000
                                                         0.111682       0.092028
                          1       6    5pz               7.622745       0.000000
                                                         2.797061       0.000000
                                                         0.990977       0.000000
                                                         0.341731       0.000000
                                                         0.111682       0.092028

                          2       1    3dx2              0.817000       1.155575
                          2       1    3dxy              0.817000       2.001514
                          2       1    3dxz              0.817000       2.001514
                          2       1    3dy2              0.817000       1.155575
                          2       1    3dyz              0.817000       2.001514
                          2       1    3dz2              0.817000       1.155575

       Atomic covalent radius [Angstrom]:                                  0.750

       Atomic van der Waals radius [Angstrom]:                             1.550

     GTH Potential information for                                       GTH-PBE

       Description:                       Goedecker-Teter-Hutter pseudopotential
                                           Goedecker et al., PRB 54, 1703 (1996)
                                          Hartwigsen et al., PRB 58, 3641 (1998)
                                                      Krack, TCA 114, 145 (2005)

       Gaussian exponent of the core charge distribution:               6.208322
       Electronic configuration (s p d ...):                               2   3

       Parameters of the local part of the GTH pseudopotential:

                          rloc        C1          C2          C3          C4
                        0.283791  -12.415226    1.868096

       Parameters of the non-local part of the GTH pseudopotential:

                   l      r(l)      h(i,j,l)

                   0    0.255405   13.630263
                   1    0.245495

  3. Atomic kind: C                                     Number of atoms:      48

     Orbital Basis Set                                               TZVP-GTH-q4

       Number of orbital shell sets:                                           2
       Number of orbital shells:                                               7
       Number of primitive Cartesian functions:                                6
       Number of Cartesian basis functions:                                   18
       Number of spherical basis functions:                                   17
       Norm type:                                                              2

       Normalised Cartesian orbitals:

                        Set   Shell   Orbital            Exponent    Coefficient

                          1       1    2s                5.368566       0.245056
                                                         1.983069       0.124102
                                                         0.697835      -0.198350
                                                         0.243097      -0.156359
                                                         0.081287      -0.018192

                          1       2    3s                5.368566       0.000000
                                                         1.983069       0.000000
                                                         0.697835       0.000000
                                                         0.243097       0.246743
                                                         0.081287       0.000000

                          1       3    4s                5.368566       0.000000
                                                         1.983069       0.000000
                                                         0.697835       0.000000
                                                         0.243097       0.000000
                                                         0.081287       0.108499

                          1       4    3px               5.368566      -0.595193
                                                         1.983069      -0.567909
                                                         0.697835      -0.325466
                                                         0.243097      -0.105296
                                                         0.081287      -0.015205
                          1       4    3py               5.368566      -0.595193
                                                         1.983069      -0.567909
                                                         0.697835      -0.325466
                                                         0.243097      -0.105296
                                                         0.081287      -0.015205
                          1       4    3pz               5.368566      -0.595193
                                                         1.983069      -0.567909
                                                         0.697835      -0.325466
                                                         0.243097      -0.105296
                                                         0.081287      -0.015205

                          1       5    4px               5.368566       0.000000
                                                         1.983069       0.000000
                                                         0.697835       0.000000
                                                         0.243097       0.243312
                                                         0.081287       0.000000
                          1       5    4py               5.368566       0.000000
                                                         1.983069       0.000000
                                                         0.697835       0.000000
                                                         0.243097       0.243312
                                                         0.081287       0.000000
                          1       5    4pz               5.368566       0.000000
                                                         1.983069       0.000000
                                                         0.697835       0.000000
                                                         0.243097       0.243312
                                                         0.081287       0.000000

                          1       6    5px               5.368566       0.000000
                                                         1.983069       0.000000
                                                         0.697835       0.000000
                                                         0.243097       0.000000
                                                         0.081287       0.061868
                          1       6    5py               5.368566       0.000000
                                                         1.983069       0.000000
                                                         0.697835       0.000000
                                                         0.243097       0.000000
                                                         0.081287       0.061868
                          1       6    5pz               5.368566       0.000000
                                                         1.983069       0.000000
                                                         0.697835       0.000000
                                                         0.243097       0.000000
                                                         0.081287       0.061868

                          2       1    3dx2              0.550000       0.578155
                          2       1    3dxy              0.550000       1.001394
                          2       1    3dxz              0.550000       1.001394
                          2       1    3dy2              0.550000       0.578155
                          2       1    3dyz              0.550000       1.001394
                          2       1    3dz2              0.550000       0.578155

       Atomic covalent radius [Angstrom]:                                  0.770

       Atomic van der Waals radius [Angstrom]:                             1.700

     GTH Potential information for                                       GTH-PBE

       Description:                       Goedecker-Teter-Hutter pseudopotential
                                           Goedecker et al., PRB 54, 1703 (1996)
                                          Hartwigsen et al., PRB 58, 3641 (1998)
                                                      Krack, TCA 114, 145 (2005)

       Gaussian exponent of the core charge distribution:               4.364419
       Electronic configuration (s p d ...):                               2   2

       Parameters of the local part of the GTH pseudopotential:

                          rloc        C1          C2          C3          C4
                        0.338471   -8.803674    1.339211

       Parameters of the non-local part of the GTH pseudopotential:

                   l      r(l)      h(i,j,l)

                   0    0.302576    9.622487
                   1    0.291507

  4. Atomic kind: H                                     Number of atoms:      30

     Orbital Basis Set                                               TZVP-GTH-q1

       Number of orbital shell sets:                                           2
       Number of orbital shells:                                               4
       Number of primitive Cartesian functions:                                6
       Number of Cartesian basis functions:                                    6
       Number of spherical basis functions:                                    6
       Norm type:                                                              2

       Normalised Cartesian orbitals:

                        Set   Shell   Orbital            Exponent    Coefficient

                          1       1    1s               10.882724      -0.071340
                                                         3.096875      -0.104410
                                                         0.987452      -0.135375
                                                         0.345069      -0.133923
                                                         0.149269      -0.073092

                          1       2    2s               10.882724       0.000000
                                                         3.096875       0.000000
                                                         0.987452       0.000000
                                                         0.345069       0.320878
                                                         0.149269       0.000000

                          1       3    3s               10.882724       0.000000
                                                         3.096875       0.000000
                                                         0.987452       0.000000
                                                         0.345069       0.000000
                                                         0.149269       0.171154

                          2       1    2px               0.727000       0.956881
                          2       1    2py               0.727000       0.956881
                          2       1    2pz               0.727000       0.956881

       Atomic covalent radius [Angstrom]:                                  0.320

       Atomic van der Waals radius [Angstrom]:                             1.090

     GTH Potential information for                                       GTH-PBE

       Description:                       Goedecker-Teter-Hutter pseudopotential
                                           Goedecker et al., PRB 54, 1703 (1996)
                                          Hartwigsen et al., PRB 58, 3641 (1998)
                                                      Krack, TCA 114, 145 (2005)

       Gaussian exponent of the core charge distribution:              12.500000
       Electronic configuration (s p d ...):                                   1

       Parameters of the local part of the GTH pseudopotential:

                          rloc        C1          C2          C3          C4
                        0.200000   -4.178900    0.724463

  5. Atomic kind: F                                     Number of atoms:      12

     Orbital Basis Set                                               TZVP-GTH-q7

       Number of orbital shell sets:                                           2
       Number of orbital shells:                                               7
       Number of primitive Cartesian functions:                                6
       Number of Cartesian basis functions:                                   18
       Number of spherical basis functions:                                   17
       Norm type:                                                              2

       Normalised Cartesian orbitals:

                        Set   Shell   Orbital            Exponent    Coefficient

                          1       1    2s               13.162513       0.499791
                                                         4.797202       0.231391
                                                         1.704998      -0.412780
                                                         0.581447      -0.293250
                                                         0.184258      -0.033277

                          1       2    3s               13.162513       0.000000
                                                         4.797202       0.000000
                                                         1.704998       0.000000
                                                         0.581447       0.474562
                                                         0.184258       0.000000

                          1       3    4s               13.162513       0.000000
                                                         4.797202       0.000000
                                                         1.704998       0.000000
                                                         0.581447       0.000000
                                                         0.184258       0.200438

                          1       4    3px              13.162513      -2.230542
                                                         4.797202      -1.972071
                                                         1.704998      -1.037904
                                                         0.581447      -0.300489
                                                         0.184258      -0.039017
                          1       4    3py              13.162513      -2.230542
                                                         4.797202      -1.972071
                                                         1.704998      -1.037904
                                                         0.581447      -0.300489
                                                         0.184258      -0.039017
                          1       4    3pz              13.162513      -2.230542
                                                         4.797202      -1.972071
                                                         1.704998      -1.037904
                                                         0.581447      -0.300489
                                                         0.184258      -0.039017

                          1       5    4px              13.162513       0.000000
                                                         4.797202       0.000000
                                                         1.704998       0.000000
                                                         0.581447       0.723732
                                                         0.184258       0.000000
                          1       5    4py              13.162513       0.000000
                                                         4.797202       0.000000
                                                         1.704998       0.000000
                                                         0.581447       0.723732
                                                         0.184258       0.000000
                          1       5    4pz              13.162513       0.000000
                                                         4.797202       0.000000
                                                         1.704998       0.000000
                                                         0.581447       0.723732
                                                         0.184258       0.000000

                          1       6    5px              13.162513       0.000000
                                                         4.797202       0.000000
                                                         1.704998       0.000000
                                                         0.581447       0.000000
                                                         0.184258       0.172077
                          1       6    5py              13.162513       0.000000
                                                         4.797202       0.000000
                                                         1.704998       0.000000
                                                         0.581447       0.000000
                                                         0.184258       0.172077
                          1       6    5pz              13.162513       0.000000
                                                         4.797202       0.000000
                                                         1.704998       0.000000
                                                         0.581447       0.000000
                                                         0.184258       0.172077

                          2       1    3dx2              1.640000       3.911886
                          2       1    3dxy              1.640000       6.775585
                          2       1    3dxz              1.640000       6.775585
                          2       1    3dy2              1.640000       3.911886
                          2       1    3dyz              1.640000       6.775585
                          2       1    3dz2              1.640000       3.911886

       Atomic covalent radius [Angstrom]:                                  0.720

       Atomic van der Waals radius [Angstrom]:                             1.470

     GTH Potential information for                                       GTH-PBE

       Description:                       Goedecker-Teter-Hutter pseudopotential
                                           Goedecker et al., PRB 54, 1703 (1996)
                                          Hartwigsen et al., PRB 58, 3641 (1998)
                                                      Krack, TCA 114, 145 (2005)

       Gaussian exponent of the core charge distribution:              10.823746
       Electronic configuration (s p d ...):                               2   5

       Parameters of the local part of the GTH pseudopotential:

                          rloc        C1          C2          C3          C4
                        0.214930  -21.573028    3.199776

       Parameters of the non-local part of the GTH pseudopotential:

                   l      r(l)      h(i,j,l)

                   0    0.194684   23.743540
                   1    0.186156


 MOLECULE KIND INFORMATION


 All atoms are their own molecule, skipping detailed information


 TOTAL NUMBERS AND MAXIMUM NUMBERS

  Total number of            - Atomic kinds:                                   5
                             - Atoms:                                         94
                             - Shell sets:                                   188
                             - Shells:                                       568
                             - Primitive Cartesian functions:                564
                             - Cartesian basis functions:                   1332
                             - Spherical basis functions:                   1268

  Maximum angular momentum of- Orbital basis functions:                        2
                             - Local part of the GTH pseudopotential:          2
                             - Non-local part of the GTH pseudopotential:      0


 MODULE QUICKSTEP: ATOMIC COORDINATES IN ANGSTROM

   Atom Kind Element         X             Y             Z       Z(eff)     Mass
      1    1 O     8      6.527181      5.934632      5.444565   6.0000  15.9994
      2    1 O     8      2.475338      8.246989     11.420550   6.0000  15.9994
      3    2 N     7      4.333115     10.459601      9.067192   5.0000  14.0067
      4    2 N     7      4.669403      3.722019      7.797923   5.0000  14.0067
      5    3 C     6      2.714088      4.776676      2.319628   4.0000  12.0107
      6    3 C     6      6.288431      9.404945     14.545487   4.0000  12.0107
      7    4 H     1      2.400758      5.555835      2.716413   1.0000   1.0079
      8    4 H     1      6.601760      8.625785     14.148701   1.0000   1.0079
      9    3 C     6      2.008781      4.211409      1.317840   4.0000  12.0107
     10    3 C     6      6.993737      9.970211     15.547275   4.0000  12.0107
     11    4 H     1      1.222346      4.613632      1.026495   1.0000   1.0079
     12    4 H     1      7.780172      9.567988     15.838619   1.0000   1.0079
     13    3 C     6      2.425949      3.076371      0.737680   4.0000  12.0107
     14    3 C     6      6.576569     11.105250     16.127434   4.0000  12.0107
     15    3 C     6      3.556386      2.490509      1.198266   4.0000  12.0107
     16    3 C     6      5.446133     11.691112     15.666848   4.0000  12.0107
     17    4 H     1      3.840997      1.684611      0.828752   1.0000   1.0079
     18    4 H     1      5.161521     12.497009     16.036363   1.0000   1.0079
     19    3 C     6      4.271043      3.061374      2.181334   4.0000  12.0107
     20    3 C     6      4.731475     11.120246     14.683781   4.0000  12.0107
     21    4 H     1      5.052786      2.651454      2.475529   1.0000   1.0079
     22    4 H     1      3.949733     11.530167     14.389586   1.0000   1.0079
     23    3 C     6      3.871712      4.222758      2.752893   4.0000  12.0107
     24    3 C     6      5.130806      9.958863     14.112222   4.0000  12.0107
     25    3 C     6      4.688077      4.846800      3.734611   4.0000  12.0107
     26    3 C     6      4.314442      9.334820     13.130504   4.0000  12.0107
     27    4 H     1      5.526938      4.463320      3.854792   1.0000   1.0079
     28    4 H     1      3.475580      9.718300     13.010323   1.0000   1.0079
     29    3 C     6      4.435791      5.865403      4.481567   4.0000  12.0107
     30    3 C     6      4.566727      8.316217     12.383548   4.0000  12.0107
     31    4 H     1      3.606146      6.280734      4.421443   1.0000   1.0079
     32    4 H     1      5.396372      7.900887     12.443672   1.0000   1.0079
     33    3 C     6      5.421090      6.373984      5.416063   4.0000  12.0107
     34    3 C     6      3.581428      7.807636     11.449052   4.0000  12.0107
     35    3 C     6      5.037523      7.454723      6.345162   4.0000  12.0107
     36    3 C     6      3.964995      6.726898     10.519953   4.0000  12.0107
     37    3 C     6      5.914210      7.747954      7.338686   4.0000  12.0107
     38    3 C     6      3.088308      6.433666      9.526429   4.0000  12.0107
     39    4 H     1      6.707600      7.267402      7.407209   1.0000   1.0079
     40    4 H     1      2.294919      6.914219      9.457906   1.0000   1.0079
     41    3 C     6      5.647671      8.730477      8.229164   4.0000  12.0107
     42    3 C     6      3.354848      5.451144      8.635951   4.0000  12.0107
     43    4 H     1      6.259018      8.918993      8.902504   1.0000   1.0079
     44    4 H     1      2.743501      5.262627      7.962611   1.0000   1.0079
     45    3 C     6      4.499892      9.439054      8.148211   4.0000  12.0107
     46    3 C     6      4.502626      4.742567      8.716903   4.0000  12.0107
     47    3 C     6      3.633357      9.151547      7.170035   4.0000  12.0107
     48    3 C     6      5.369161      5.030074      9.695080   4.0000  12.0107
     49    4 H     1      2.847589      9.642577      7.090819   1.0000   1.0079
     50    4 H     1      6.154929      4.539043      9.774295   1.0000   1.0079
     51    3 C     6      3.888398      8.145467      6.286303   4.0000  12.0107
     52    3 C     6      5.114120      6.036153     10.578812   4.0000  12.0107
     53    4 H     1      3.258774      7.934672      5.633522   1.0000   1.0079
     54    4 H     1      5.743744      6.246948     11.231593   1.0000   1.0079
     55    3 C     6      3.243442     10.638654      9.603671   4.0000  12.0107
     56    3 C     6      5.759077      3.542966      7.261444   4.0000  12.0107
     57    4 H     1      2.534776     10.083854      9.365906   1.0000   1.0079
     58    4 H     1      6.467742      4.097766      7.499208   1.0000   1.0079
     59    3 C     6      3.018659     11.645031     10.559923   4.0000  12.0107
     60    3 C     6      5.983860      2.536590      6.305192   4.0000  12.0107
     61    3 C     6      3.919714     12.616379     10.796034   4.0000  12.0107
     62    3 C     6      5.082804      1.565242      6.069080   4.0000  12.0107
     63    4 H     1      3.567686      2.529233     10.281817   1.0000   1.0079
     64    4 H     1      5.434833     11.652387      6.583297   1.0000   1.0079
     65    3 C     6      2.613444      3.433672     11.747227   4.0000  12.0107
     66    3 C     6      6.389075     10.747948      5.117888   4.0000  12.0107
     67    4 H     1      3.254694      4.092583     11.877510   1.0000   1.0079
     68    4 H     1      5.747824     10.089037      4.987605   1.0000   1.0079
     69    3 C     6      7.139870      3.411924     12.516276   4.0000  12.0107
     70    3 C     6      1.862649     10.769696      4.348838   4.0000  12.0107
     71    3 C     6      7.350026     12.578474     12.278478   4.0000  12.0107
     72    3 C     6      1.652492      1.603146      4.586637   4.0000  12.0107
     73    4 H     1      6.566347     12.556386     12.778917   1.0000   1.0079
     74    4 H     1      2.436171      1.625234      4.086198   1.0000   1.0079
     75    3 C     6      7.555721     11.655636     11.320540   4.0000  12.0107
     76    3 C     6      1.446798      2.525984      5.544575   4.0000  12.0107
     77    4 H     1      6.908263     11.001677     11.178502   1.0000   1.0079
     78    4 H     1      2.094255      3.179943      5.686613   1.0000   1.0079
     79    3 C     6      3.974938      6.537979     16.526800   4.0000  12.0107
     80    3 C     6      5.027580      7.643642      0.338314   4.0000  12.0107
     81    3 C     6      6.956018      4.367253     13.540157   4.0000  12.0107
     82    3 C     6      2.046501      9.814367      3.324957   4.0000  12.0107
     83    5 F     9      2.879374      7.011561     16.247008   7.0000  18.9984
     84    5 F     9      6.123144      7.170060      0.618106   7.0000  18.9984
     85    5 F     9      4.512867      6.611767     15.429387   7.0000  18.9984
     86    5 F     9      4.489651      7.569854      1.435727   7.0000  18.9984
     87    5 F     9      3.755545      5.357419     16.603031   7.0000  18.9984
     88    5 F     9      5.246974      8.824202      0.262084   7.0000  18.9984
     89    5 F     9      5.744332      4.582864     13.865485   7.0000  18.9984
     90    5 F     9      3.258186      9.598756      2.999629   7.0000  18.9984
     91    5 F     9      7.364473      5.547246     13.293589   7.0000  18.9984
     92    5 F     9      1.638045      8.634375      3.571525   7.0000  18.9984
     93    5 F     9      7.507227      4.059431     14.639425   7.0000  18.9984
     94    5 F     9      1.495292     10.122189      2.225689   7.0000  18.9984



 SCF PARAMETERS         Density guess:                                    ATOMIC
                        --------------------------------------------------------
                        max_scf:                                             128
                        max_scf_history:                                       0
                        max_diis:                                              4
                        --------------------------------------------------------
                        eps_scf:                                        1.00E-06
                        eps_scf_history:                                0.00E+00
                        eps_diis:                                       1.00E-01
                        eps_eigval:                                     1.00E-05
                        --------------------------------------------------------
                        level_shift [a.u.]:                             0.000000
                        --------------------------------------------------------
                        Mixing method:                            BROYDEN_MIXING
                                                charge density mixing in g-space
                        --------------------------------------------------------
                        No outer SCF

 PW_GRID| Information for grid number                                          1
 PW_GRID| Grid distributed over                                    90 processors
 PW_GRID| Real space group dimensions                                     9   10
 PW_GRID| the grid is blocked:                                               YES
 PW_GRID| Cutoff [a.u.]                                                    200.0
 PW_GRID| spherical cutoff:                                                   NO
 PW_GRID|   Bounds   1            -36      35                Points:          72
 PW_GRID|   Bounds   2            -62      62                Points:         125
 PW_GRID|   Bounds   3           -108     107                Points:         216
 PW_GRID| Volume element (a.u.^3)  0.3341E-02     Volume (a.u.^3)      6494.7381
 PW_GRID| Grid span                                                    FULLSPACE
 PW_GRID|   Distribution                         Average         Max         Min
 PW_GRID|   G-Vectors                            21600.0       22176       19656
 PW_GRID|   G-Rays                                 300.0         308         273
 PW_GRID|   Real Space Points                    21600.0       22176       19656

 PW_GRID| Information for grid number                                          2
 PW_GRID| Number of the reference grid                                         1
 PW_GRID| Grid distributed over                                    90 processors
 PW_GRID| Real space group dimensions                                     9   10
 PW_GRID| the grid is blocked:                                                NO
 PW_GRID| Cutoff [a.u.]                                                     66.7
 PW_GRID| spherical cutoff:                                                   NO
 PW_GRID|   Bounds   1            -20      19                Points:          40
 PW_GRID|   Bounds   2            -36      35                Points:          72
 PW_GRID|   Bounds   3            -62      62                Points:         125
 PW_GRID| Volume element (a.u.^3)  0.1804E-01     Volume (a.u.^3)      6494.7381
 PW_GRID| Grid span                                                    FULLSPACE
 PW_GRID|   Distribution                         Average         Max         Min
 PW_GRID|   G-Vectors                             4000.0       12320           0
 PW_GRID|   G-Rays                                 100.0         308           0
 PW_GRID|   Real Space Points                     4000.0        5000        3500

 PW_GRID| Information for grid number                                          3
 PW_GRID| Number of the reference grid                                         1
 PW_GRID| Grid distributed over                                    90 processors
 PW_GRID| Real space group dimensions                                     9   10
 PW_GRID| the grid is blocked:                                                NO
 PW_GRID| Cutoff [a.u.]                                                     22.2
 PW_GRID| spherical cutoff:                                                   NO
 PW_GRID|   Bounds   1            -12      11                Points:          24
 PW_GRID|   Bounds   2            -22      22                Points:          45
 PW_GRID|   Bounds   3            -36      35                Points:          72
 PW_GRID| Volume element (a.u.^3)  0.8352E-01     Volume (a.u.^3)      6494.7381
 PW_GRID| Grid span                                                    FULLSPACE
 PW_GRID|   Distribution                         Average         Max         Min
 PW_GRID|   G-Vectors                              864.0        7392           0
 PW_GRID|   G-Rays                                  36.0         308           0
 PW_GRID|   Real Space Points                      864.0        1080         576

 PW_GRID| Information for grid number                                          4
 PW_GRID| Number of the reference grid                                         1
 PW_GRID| Grid distributed over                                    90 processors
 PW_GRID| Real space group dimensions                                     9   10
 PW_GRID| the grid is blocked:                                                NO
 PW_GRID| Cutoff [a.u.]                                                      7.4
 PW_GRID| spherical cutoff:                                                   NO
 PW_GRID|   Bounds   1             -7       7                Points:          15
 PW_GRID|   Bounds   2            -12      11                Points:          24
 PW_GRID|   Bounds   3            -22      22                Points:          45
 PW_GRID| Volume element (a.u.^3)  0.4009         Volume (a.u.^3)      6494.7381
 PW_GRID| Grid span                                                    FULLSPACE
 PW_GRID|   Distribution                         Average         Max         Min
 PW_GRID|   G-Vectors                              180.0        3960           0
 PW_GRID|   G-Rays                                  12.0         264           0
 PW_GRID|   Real Space Points                      180.0         270          90

 POISSON| Solver                                                        PERIODIC
 POISSON| Periodicity                                                        XYZ

 RS_GRID| Information for grid number                                          1
 RS_GRID|   Bounds   1            -36      35                Points:          72
 RS_GRID|   Bounds   2            -62      62                Points:         125
 RS_GRID|   Bounds   3           -108     107                Points:         216
 RS_GRID| Real space distribution over                                  6 groups
 RS_GRID| Real space distribution along direction                              2
 RS_GRID| Border size                                                         31
 RS_GRID| Real space distribution over                                 15 groups
 RS_GRID| Real space distribution along direction                              3
 RS_GRID| Border size                                                         31
 RS_GRID|   Distribution                         Average         Max         Min
 RS_GRID|   Planes                                  82.8          83          82
 RS_GRID|   Distribution                         Average         Max         Min
 RS_GRID|   Planes                                  76.4          77          76

 RS_GRID| Information for grid number                                          2
 RS_GRID|   Bounds   1            -20      19                Points:          40
 RS_GRID|   Bounds   2            -36      35                Points:          72
 RS_GRID|   Bounds   3            -62      62                Points:         125
 RS_GRID| Real space fully replicated
 RS_GRID| Group size                                                           1

 RS_GRID| Information for grid number                                          3
 RS_GRID|   Bounds   1            -12      11                Points:          24
 RS_GRID|   Bounds   2            -22      22                Points:          45
 RS_GRID|   Bounds   3            -36      35                Points:          72
 RS_GRID| Real space fully replicated
 RS_GRID| Group size                                                           1

 RS_GRID| Information for grid number                                          4
 RS_GRID|   Bounds   1             -7       7                Points:          15
 RS_GRID|   Bounds   2            -12      11                Points:          24
 RS_GRID|   Bounds   3            -22      22                Points:          45
 RS_GRID| Real space fully replicated
 RS_GRID| Group size                                                           1

 *******************************************************************************
 ***                     STARTING GEOMETRY OPTIMIZATION                      ***
 ***                                 L-BFGS                                  ***
 *******************************************************************************

 --------------------------
 OPTIMIZATION STEP:      1
 --------------------------

 Number of electrons:                                                        328
 Number of occupied orbitals:                                                164
 Number of molecular orbitals:                                               164

 Number of orbital functions:                                               1268
 Number of independent orbital functions:                                   1268

 Extrapolation method: initial_guess

 Atomic guess: The first density matrix is obtained in terms of atomic orbitals
               and electronic configurations assigned to each atomic kind

 Guess for atomic kind: O

 Electronic structure
    Total number of core electrons                                          2.00
    Total number of valence electrons                                       6.00
    Total number of electrons                                               8.00
    Multiplicity                                                   not specified
    S   [  2.00] 2.00
    P      4.00


 *******************************************************************************
                  Iteration          Convergence                     Energy [au]
 *******************************************************************************
                          1        0.577491                     -15.568616633298
                          2        0.659429                     -15.574385699476
                          3        0.252248E-01                 -15.656217861375
                          4        0.156627E-02                 -15.656397101845
                          5        0.161710E-04                 -15.656397459300
                          6        0.346702E-06                 -15.656397459369

 Energy components [Hartree]           Total Energy ::          -15.656397459369
                                        Band Energy ::           -3.001886830830
                                     Kinetic Energy ::           11.780460877478
                                   Potential Energy ::          -27.436858336847
                                      Virial (-V/T) ::            2.329014002271
                                        Core Energy ::          -26.138300535672
                                          XC Energy ::           -3.153767183935
                                     Coulomb Energy ::           13.635670260237
                       Total Pseudopotential Energy ::          -37.953932103637
                       Local Pseudopotential Energy ::          -39.253303299158
                    Nonlocal Pseudopotential Energy ::            1.299371195522
                                        Confinement ::            0.351706904867

 Orbital energies  State     L     Occupation   Energy[a.u.]          Energy[eV]

                       1     0          2.000      -0.864888          -23.534800

                       1     1          4.000      -0.318028           -8.653974


 Total Electron Density at R=0:                                         0.000125

 Guess for atomic kind: N

 Electronic structure
    Total number of core electrons                                          2.00
    Total number of valence electrons                                       5.00
    Total number of electrons                                               7.00
    Multiplicity                                                   not specified
    S   [  2.00] 2.00
    P      3.00


 *******************************************************************************
                  Iteration          Convergence                     Energy [au]
 *******************************************************************************
                          1        0.271988                      -9.512616220151
                          2        0.247955                      -9.522554716740
                          3        0.504788E-02                  -9.546164505587
                          4        0.458466E-03                  -9.546178122964
                          5        0.244989E-05                  -9.546178176956
                          6        0.114677E-05                  -9.546178176959
                          7        0.269739E-08                  -9.546178176959

 Energy components [Hartree]           Total Energy ::           -9.546178176959
                                        Band Energy ::           -2.056052167563
                                     Kinetic Energy ::            6.750514589450
                                   Potential Energy ::          -16.296692766410
                                      Virial (-V/T) ::            2.414140811114
                                        Core Energy ::          -15.541752718363
                                          XC Energy ::           -2.162895801542
                                     Coulomb Energy ::            8.158470342945
                       Total Pseudopotential Energy ::          -22.329540620284
                       Local Pseudopotential Energy ::          -23.278432410601
                    Nonlocal Pseudopotential Energy ::            0.948891790316
                                        Confinement ::            0.372733124714

 Orbital energies  State     L     Occupation   Energy[a.u.]          Energy[eV]

                       1     0          2.000      -0.663798          -18.062862

                       1     1          3.000      -0.242819           -6.607433


 Total Electron Density at R=0:                                         0.000098

 Guess for atomic kind: C

 Electronic structure
    Total number of core electrons                                          2.00
    Total number of valence electrons                                       4.00
    Total number of electrons                                               6.00
    Multiplicity                                                   not specified
    S   [  2.00] 2.00
    P      2.00


 *******************************************************************************
                  Iteration          Convergence                     Energy [au]
 *******************************************************************************
                          1        0.989032E-01                  -5.274804028878
                          2        0.626412E-01                  -5.279859793703
                          3        0.811567E-03                  -5.283752722279
                          4        0.832201E-04                  -5.283753018164
                          5        0.104768E-06                  -5.283753025329

 Energy components [Hartree]           Total Energy ::           -5.283753025329
                                        Band Energy ::           -1.317239350806
                                     Kinetic Energy ::            3.389251109490
                                   Potential Energy ::           -8.673004134819
                                      Virial (-V/T) ::            2.558973606451
                                        Core Energy ::           -8.295157719552
                                          XC Energy ::           -1.377263451845
                                     Coulomb Energy ::            4.388668146068
                       Total Pseudopotential Energy ::          -11.718697935603
                       Local Pseudopotential Energy ::          -12.368442815308
                    Nonlocal Pseudopotential Energy ::            0.649744879704
                                        Confinement ::            0.342891065612

 Orbital energies  State     L     Occupation   Energy[a.u.]          Energy[eV]

                       1     0          2.000      -0.484434          -13.182123

                       1     1          2.000      -0.174186           -4.739829


 Total Electron Density at R=0:                                         0.000068

 Guess for atomic kind: H

 Electronic structure
    Total number of core electrons                                          0.00
    Total number of valence electrons                                       1.00
    Total number of electrons                                               1.00
    Multiplicity                                                   not specified
    S      1.00


 *******************************************************************************
                  Iteration          Convergence                     Energy [au]
 *******************************************************************************
                          1        0.440266E-02                  -0.423513531970
                          2        0.325828E-03                  -0.423525175186
                          3        0.252148E-04                  -0.423525335541
                          4        0.637775E-08                  -0.423525336420

 Energy components [Hartree]           Total Energy ::           -0.423525336420
                                        Band Energy ::           -0.195262559383
                                     Kinetic Energy ::            0.470173284674
                                   Potential Energy ::           -0.893698621094
                                      Virial (-V/T) ::            1.900785625696
                                        Core Energy ::           -0.479699819139
                                          XC Energy ::           -0.247097449670
                                     Coulomb Energy ::            0.303271932388
                       Total Pseudopotential Energy ::           -0.967738859557
                       Local Pseudopotential Energy ::           -0.967738859557
                    Nonlocal Pseudopotential Energy ::            0.000000000000
                                        Confinement ::            0.178657557441

 Orbital energies  State     L     Occupation   Energy[a.u.]          Energy[eV]

                       1     0          1.000      -0.195263           -5.313364


 Total Electron Density at R=0:                                         0.240075

 Guess for atomic kind: F

 Electronic structure
    Total number of core electrons                                          2.00
    Total number of valence electrons                                       7.00
    Total number of electrons                                               9.00
    Multiplicity                                                   not specified
    S   [  2.00] 2.00
    P      5.00


 *******************************************************************************
                  Iteration          Convergence                     Energy [au]
 *******************************************************************************
                          1         1.09128                     -23.755166850180
                          2         1.38433                     -23.734427909305
                          3        0.711476E-01                 -23.938311129009
                          4        0.418185E-02                 -23.939149765174
                          5        0.598928E-04                 -23.939151408555
                          6        0.262546E-05                 -23.939151409108
                          7        0.610895E-07                 -23.939151409109

 Energy components [Hartree]           Total Energy ::          -23.939151409109
                                        Band Energy ::           -4.155221101900
                                     Kinetic Energy ::           18.804077974298
                                   Potential Energy ::          -42.743229383407
                                      Virial (-V/T) ::            2.273082968590
                                        Core Energy ::          -40.725372091757
                                          XC Energy ::           -4.362691014750
                                     Coulomb Energy ::           21.148911697397
                       Total Pseudopotential Energy ::          -59.563738493204
                       Local Pseudopotential Energy ::          -61.265692869551
                    Nonlocal Pseudopotential Energy ::            1.701954376347
                                        Confinement ::            0.342884271495

 Orbital energies  State     L     Occupation   Energy[a.u.]          Energy[eV]

                       1     0          2.000      -1.085278          -29.531910

                       1     1          5.000      -0.396933          -10.801099


 Total Electron Density at R=0:                                         0.000181
 Re-scaling the density matrix to get the right number of electrons
                  # Electrons              Trace(P)               Scaling factor
                          328               327.778                        1.001


 SCF WAVEFUNCTION OPTIMIZATION

  Step     Update method      Time    Convergence         Total energy    Change
  ------------------------------------------------------------------------------
     1 NoMix/Diag. 0.40E+00    0.4    17.39376079      -634.0739031298 -6.34E+02
     2 Broy./Diag. 0.40E+00    0.5     1.60803452      -587.9085908667  4.62E+01
     3 Broy./Diag. 0.40E+00    0.8     1.46596657      -621.4799716911 -3.36E+01
     4 Broy./Diag. 0.40E+00    0.6     0.50902458      -631.8073777897 -1.03E+01
     5 Broy./Diag. 0.40E+00    0.5     0.42743030      -633.5619754455 -1.75E+00
     6 Broy./Diag. 0.40E+00    0.5     0.16676283      -632.9061367486  6.56E-01
     7 Broy./Diag. 0.40E+00    0.6     0.05027434      -632.7382250866  1.68E-01
     8 Broy./Diag. 0.40E+00    0.5     0.03291221      -632.7131748150  2.51E-02
[...]
     70       C      3       4.000          4.011                        -0.011
     71       C      3       4.000          4.391                        -0.391
     72       C      3       4.000          4.391                        -0.391
     73       H      4       1.000          0.541                         0.459
     74       H      4       1.000          0.541                         0.459
     75       C      3       4.000          4.412                        -0.412
     76       C      3       4.000          4.412                        -0.412
     77       H      4       1.000          0.538                         0.462
     78       H      4       1.000          0.538                         0.462
     79       C      3       4.000          3.140                         0.860
     80       C      3       4.000          3.140                         0.860
     81       C      3       4.000          3.143                         0.857
     82       C      3       4.000          3.143                         0.857
     83       F      5       7.000          7.405                        -0.405
     84       F      5       7.000          7.405                        -0.405
     85       F      5       7.000          7.369                        -0.369
     86       F      5       7.000          7.369                        -0.369
     87       F      5       7.000          7.363                        -0.363
     88       F      5       7.000          7.363                        -0.363
     89       F      5       7.000          7.369                        -0.369
     90       F      5       7.000          7.369                        -0.369
     91       F      5       7.000          7.407                        -0.407
     92       F      5       7.000          7.407                        -0.407
     93       F      5       7.000          7.366                        -0.366
     94       F      5       7.000          7.366                        -0.366

  Total Charge                                                           -0.000
 !-----------------------------------------------------------------------------!

 ENERGY| Total FORCE_EVAL ( QS ) energy [a.u.]:             -633.891367513124010

 -------------------------------------------------------------------------------
 -                                                                             -
 -                                DBCSR STATISTICS                             -
 -                                                                             -
 -------------------------------------------------------------------------------
 COUNTER                                    TOTAL       BLAS       SMM       ACC
 flops     6 x     4 x     6             71648640       0.0%    100.0%      0.0%
 flops     6 x     6 x     4            171757152       0.0%    100.0%      0.0%
 flops     6 x     4 x    17            458627904       0.0%    100.0%      0.0%
 flops    17 x     4 x     6            458627904       0.0%    100.0%      0.0%
 flops     6 x    17 x     4           1058609856       0.0%    100.0%      0.0%
 flops    17 x     6 x     4           1063665792       0.0%    100.0%      0.0%
 flops    17 x     4 x    17           2822045696       0.0%    100.0%      0.0%
 flops     6 x    32 x     6           2865945600       0.0%    100.0%      0.0%
 flops    17 x    17 x     4           6631555840       0.0%    100.0%      0.0%
 flops     6 x     6 x    32           6870286080       0.0%    100.0%      0.0%
 flops     6 x    32 x    17          18345116160       0.0%    100.0%      0.0%
 flops    17 x    32 x     6          18345116160       0.0%    100.0%      0.0%
 flops     6 x    17 x    32          42344394240       0.0%    100.0%      0.0%
 flops    17 x     6 x    32          42546631680       0.0%    100.0%      0.0%
 flops    17 x    32 x    17         112881827840       0.0%    100.0%      0.0%
 flops    17 x    17 x    32         265262233600       0.0%    100.0%      0.0%
 flops inhomo. stacks                           0       0.0%      0.0%      0.0%
 flops total                       522.198090E+09       0.0%    100.0%      0.0%
 flops max/rank                     11.051143E+09       0.0%    100.0%      0.0%
 matmuls inhomo. stacks                         0       0.0%      0.0%      0.0%
 matmuls total                           51954018       0.0%    100.0%      0.0%
 number of processed stacks               7853994       0.0%    100.0%      0.0%
 average stack size                                     0.0       6.6       0.0
 marketing flops                   884.399866E+09
 -------------------------------------------------------------------------------
 # multiplications                           1677
 max memory usage/rank               1.000542E+09
 # max total images/rank                        5
 # max 3D layers                                1
 # MPI messages exchanged                 7999290
 MPI messages size (bytes):
  total size                        99.420037E+09
  min size                           0.000000E+00
  max size                         124.032000E+03
  average size                      12.428607E+03
 MPI breakdown and total messages size (bytes):
             size <=      128             5664564                        0
       128 < size <=     8192              293761               1344825216
      8192 < size <=    32768              710825              13387955200
     32768 < size <=   131072             1330140              84687712256
    131072 < size <=  4194304                   0                        0
   4194304 < size <= 16777216                   0                        0
  16777216 < size                               0                        0
 -------------------------------------------------------------------------------

 *** WARNING in dbcsr_mm.F:291 :: Using a non-square number of MPI ranks ***
 *** might lead to poor performance. Used ranks: 90 Suggested: 81 169    ***

 -------------------------------------------------------------------------------
 -                                                                             -
 -                      DBCSR MESSAGE PASSING PERFORMANCE                      -
 -                                                                             -
 -------------------------------------------------------------------------------
 ROUTINE             CALLS      AVE VOLUME [Bytes]
 MP_Bcast               17                     12.
 MP_Allreduce        10445                      8.
 MP_Alltoall         34844                  56382.
 MP_ISend           191774                   6793.
 MP_IRecv           193936                   5897.
 -------------------------------------------------------------------------------

 -------------------------------------------------------------------------------
 -                                                                             -
 -                                DBM STATISTICS                               -
 -                                                                             -
 -------------------------------------------------------------------------------
    M  x    N  x    K                                          COUNT     PERCENT
 -------------------------------------------------------------------------------

 -------------------------------------------------------------------------------
 -                                                                             -
 -                                GRID STATISTICS                              -
 -                                                                             -
 -------------------------------------------------------------------------------
 LP    KERNEL             BACKEND                              COUNT     PERCENT
 2     collocate general  CPU                               95910509      25.87%
 2     integrate general  CPU                               93336070      25.17%
 1     collocate general  CPU                               53593581      14.45%
 1     integrate general  CPU                               51544228      13.90%
 3     integrate general  CPU                               28710269       7.74%
 3     collocate general  CPU                               24509544       6.61%
 0     collocate general  CPU                                9909812       2.67%
 0     integrate general  CPU                                8735692       2.36%
 4     integrate general  CPU                                2897206       0.78%
 4     collocate general  CPU                                1540972       0.42%
 5     integrate general  CPU                                  91041       0.02%
 -------------------------------------------------------------------------------

 MEMORY| Estimated peak process memory [MiB]                                 955

 -------------------------------------------------------------------------------
 ----                             MULTIGRID INFO                            ----
 -------------------------------------------------------------------------------
 count for grid        1:        6554317          cutoff [a.u.]          200.00
 count for grid        2:        5589746          cutoff [a.u.]           66.67
 count for grid        3:        4447268          cutoff [a.u.]           22.22
 count for grid        4:        1540050          cutoff [a.u.]            7.41
 total gridlevel count  :       18131381

 -------------------------------------------------------------------------------
 -                                                                             -
 -                         MESSAGE PASSING PERFORMANCE                         -
 -                                                                             -
 -------------------------------------------------------------------------------

 ROUTINE             CALLS      AVE VOLUME [Bytes]
 MP_Group                4
 MP_Bcast             3415                 260139.
 MP_Allreduce        33493                    194.
 MP_Sync             16859
 MP_Alltoall         42534               42871622.
 MP_SendRecv        375669                  15774.
 MP_ISendRecv       347634                  16933.
 MP_Wait            458031
 MP_comm_split        1225
 MP_ISend           202278                  54475.
 MP_IRecv           202350                  54456.
 -------------------------------------------------------------------------------


 -------------------------------------------------------------------------------
 -                                                                             -
 -                           R E F E R E N C E S                               -
 -                                                                             -
 -------------------------------------------------------------------------------
 
 CP2K version 2023.2, the CP2K developers group (2023).
 CP2K is freely available from https://www.cp2k.org/ .

 Kuehne,Thomas D.; Iannuzzi,Marcella; Del Ben,Mauro;
 Rybkin,Vladimir V.; Seewald,Patrick; Stein,Frederick; Laino,Teodoro;
 Khaliullin,Rustam Z.; Schuett,Ole; Schiffmann,Florian; Golze,Dorothea;
 Wilhelm,Jan; Chulkov,Sergey; Bani-Hashemian,Mohammad Hossein;
 Weber,Valery; Borstnik,Urban; Taillefumier,Mathieu;
 Jakobovits,Alice Shoshana; Lazzaro,Alfio; Pabst,Hans; Mueller,Tiziano;
 Schade,Robert; Guidon,Manuel; Andermatt,Samuel; Holmberg,Nico;
 Schenter,Gregory K.; Hehn,Anna; Bussy,Augustin; Belleflamme,Fabian;
 Tabacchi,Gloria; Gloess,Andreas; Lass,Michael; Bethune,Iain;
 Mundy,Christopher J.; Plessl,Christian; Watkins,Matt;
 VandeVondele,Joost; Krack,Matthias; Hutter,Juerg. 
 The Journal of Chemical Physics, 152 (19), (2020). 
 CP2K: An electronic structure and molecular dynamics software package -
 Quickstep: Efficient and accurate electronic structure calculations.
 https://doi.org/10.1063/5.0007045

 Goerigk, Lars; Hansen, Andreas; Bauer, Christoph; Ehrlich, Stephan;
 Najibi, Asim; Grimme, Stefan. , 19 (48), (2017). 
 A look at the density functional theory zoo with the advanced GMTKN55 database
 for general main group thermochemistry, kinetics and noncovalent interactions.
 https://doi.org/10.1039/C7CP04913G

 Schuett, Ole; Messmer, Peter; Hutter, Juerg; VandeVondele, Joost. 
 Electronic Structure Calculations on Graphics Processing Units, John
 Wiley & Sons, Ltd, 173-190 (2016). 
 GPU-Accelerated Sparse Matrix-Matrix Multiplication for
 Linear Scaling Density Functional Theory.
 https://doi.org/10.1002/9781118670712.ch8

 Heinecke, A; Henry, G; Hutchinson, M; Pabst, H. 
 Proceedings of Intl. Supercomputing Conference, 981-991 (2016). 
 LIBXSMM: Accelerating Small Matrix Multiplications
 by Runtime Code Generation.
 https://doi.org/10.1109/SC.2016.83

 Borstnik, U; VandeVondele, J; Weber, V; Hutter, J. 
 PARALLEL COMPUTING, 40 (5-6), 47-58 (2014). 
 Sparse matrix multiplication: The distributed block-compressed sparse
 row library.
 https://doi.org/10.1016/j.parco.2014.03.012

 Hutter, J; Iannuzzi, M; Schiffmann, F; VandeVondele, J. 
 WIREs Comput Mol Sci., 4 (1), 15-25 (2014). 
 CP2K: atomistic simulations of condensed matter systems.
 https://doi.org/10.1002/wcms.1159

 Grimme, S; Ehrlich, S; Goerigk, L. 
 JOURNAL OF COMPUTATIONAL CHEMISTRY, 32, 1456 (2011). 
 Effect of the damping function in dispersion corrected density functional theory.
 https://doi.org/10.1002/jcc.21759

 Grimme, S; Antony, J; Ehrlich, S; Krieg, H. 
 JOURNAL OF CHEMICAL PHYSICS, 132 (15), 154104 (2010). 
 A consistent and accurate ab initio parametrization of density
 functional dispersion correction (DFT-D) for the 94 elements H-Pu.
 https://doi.org/10.1063/1.3382344

 Kuhne, TD; Krack, M; Mohamed, FR; Parrinello, M. 
 PHYSICAL REVIEW LETTERS, 98 (6), 066401 (2007). 
 Efficient and accurate Car-Parrinello-like approach to
 Born-Oppenheimer molecular dynamics.
 https://doi.org/10.1103/PhysRevLett.98.066401

 Krack, M. 
 THEORETICAL CHEMISTRY ACCOUNTS, 114 (1-3), 145-152 (2005). 
 Pseudopotentials for H to Kr optimized for gradient-corrected
 exchange-correlation functionals.
 https://doi.org/10.1007/s00214-005-0655-y

 VandeVondele, J; Krack, M; Mohamed, F; Parrinello, M; Chassaing, T;
 Hutter, J. COMPUTER PHYSICS COMMUNICATIONS, 167 (2), 103-128 (2005). 
 QUICKSTEP: Fast and accurate density functional calculations using a
 mixed Gaussian and plane waves approach.
 https://doi.org/10.1016/j.cpc.2004.12.014

 Frigo, M; Johnson, SG. 
 PROCEEDINGS OF THE IEEE, 93 (2), 216-231 (2005). 
 The design and implementation of FFTW3.
 https://doi.org/10.1109/JPROC.2004.840301

 Kolafa, J. 
 JOURNAL OF COMPUTATIONAL CHEMISTRY, 25 (3), 335-342 (2004). 
 Time-reversible always stable predictor-corrector method for
 molecular dynamics of polarizable molecules.
 https://doi.org/10.1002/jcc.10385

 Hartwigsen, C; Goedecker, S; Hutter, J. 
 PHYSICAL REVIEW B, 58 (7), 3641-3662 (1998). 
 Relativistic separable dual-space Gaussian pseudopotentials from H to Rn.
 https://doi.org/10.1103/PhysRevB.58.3641

 Lippert, G; Hutter, J; Parrinello, M. 
 MOLECULAR PHYSICS, 92 (3), 477-487 (1997). 
 A hybrid Gaussian and plane wave density functional scheme.
 https://doi.org/10.1080/002689797170220

 Perdew, JP; Burke, K; Ernzerhof, M. 
 PHYSICAL REVIEW LETTERS, 77 (18), 3865-3868 (1996). 
 Generalized gradient approximation made simple.
 https://doi.org/10.1103/PhysRevLett.77.3865

 Goedecker, S; Teter, M; Hutter, J. 
 PHYSICAL REVIEW B, 54 (3), 1703-1710 (1996). 
 Separable dual-space Gaussian pseudopotentials.
 https://doi.org/10.1103/PhysRevB.54.1703

 BYRD, RH; LU, PH; NOCEDAL, J; ZHU, CY. 
 SIAM JOURNAL ON SCIENTIFIC COMPUTING, 16 (5), 1190-1208 (1995). 
 A LIMITED MEMORY ALGORITHM FOR BOUND CONSTRAINED OPTIMIZATION.
 https://doi.org/10.1137/0916069


 -------------------------------------------------------------------------------
 -                                                                             -
 -                                T I M I N G                                  -
 -                                                                             -
 -------------------------------------------------------------------------------
 SUBROUTINE                       CALLS  ASD         SELF TIME        TOTAL TIME
                                MAXIMUM       AVERAGE  MAXIMUM  AVERAGE  MAXIMUM
 CP2K                                 1  1.0    0.046    0.056 1414.014 1414.015
 cp_geo_opt                           1  2.0    0.006    0.006 1413.473 1413.475
 geoopt_lbfgs                         1  3.0    0.000    0.016 1413.467 1413.469
 cp_eval_at                          78  5.0    0.014    0.043 1413.095 1413.124
 cp_opt_gopt_step                    74  4.0    0.010    0.208 1397.806 1397.807
 qs_forces                           77  6.0    0.010    0.011 1397.417 1397.419
 qs_energies                         78  7.0    0.008    0.010 1394.073 1394.128
 qs_energies_init_hamiltonians       78  8.0    0.005    0.009  761.322  761.323
 calculate_dispersion_pairpot        78  9.0  436.970  736.635  757.431  757.432
 scf_env_do_scf                      78  8.0    0.005    0.060  608.941  609.102
 scf_env_do_scf_inner_loop         1225  9.0    0.029    0.335  608.935  609.070
 mp_sum_d                         13382 12.4  324.579  402.629  324.579  402.629
 qs_scf_new_mos                    1225 10.0    0.013    0.018  250.418  250.768
 eigensolver                       1225 11.0    0.079    0.124  238.339  238.433
 rebuild_ks_matrix                 1302 10.8    0.003    0.004  207.775  207.878
 qs_ks_build_kohn_sham_matrix      1302 11.8    0.137    0.157  207.772  207.875
 cp_fm_syevd                       1225 12.0    0.007    0.013  206.989  207.679
 cp_fm_redistribute_end            1225 13.0  103.421  205.391  103.487  205.408
 cp_fm_syevd_base                  1225 13.0  101.747  204.232  101.747  204.232
 qs_ks_update_qs_env               1225 10.0    0.011    0.012  192.297  192.401
 qs_rho_update_rho_low             1303 10.0    0.007    0.012  164.436  164.465
 calculate_rho_elec                1303 11.0    0.124    0.134  164.429  164.458
 sum_up_and_integrate              1302 12.8    0.162    0.190  161.104  161.199
 integrate_v_rspace                1302 13.8    0.033    0.036  160.939  161.031
 grid_integrate_task_list          1302 14.8  126.576  129.361  126.576  129.361
 grid_collocate_task_list          1303 12.0  123.903  126.646  123.903  126.646
 rs_pw_transfer                   10731 14.3    0.128    0.176   51.871   54.986
 pw_transfer                      25968 14.8    1.113    1.204   52.903   53.559
 fft_wrap_pw1pw2                  23364 15.9    0.132    0.163   51.542   52.235
 fft_wrap_pw1pw2_200              15549 17.2    3.927    4.875   43.887   44.712
 density_rs2pw                     1303 12.0    0.048    0.059   38.334   41.719
 qs_vxc_create                     1302 12.8    0.032    0.036   38.922   39.109
 xc_vxc_pw_create                  1302 13.8    0.221    0.251   38.891   39.080
 fft3d_pb                         15549 18.2   13.285   14.359   36.704   38.385
 cp_fm_cholesky_restore            3675 12.0   30.278   31.117   30.278   31.117
 potential_pw2rs                   1302 14.8    0.050    0.063   29.472   29.520
 -------------------------------------------------------------------------------

 The number of warnings for this run is : 1
 
 -------------------------------------------------------------------------------
  **** **** ******  **  PROGRAM ENDED AT                 2024-02-29 07:26:26.761
 ***** ** ***  *** **   PROGRAM RAN ON                              2a5cbcd1c14c
 **    ****   ******    PROGRAM RAN BY                                 <unknown>
 ***** **    ** ** **   PROGRAM PROCESS ID                                   538
  **** **  *******  **  PROGRAM STOPPED IN                                  /mnt
