 DBCSR| CPU Multiplication driver                                           XSMM (U)
 DBCSR| Multrec recursion limit                                              512 (U)
 DBCSR| Multiplication stack size                                           1000 (D)
 DBCSR| Maximum elements for images                                    UNLIMITED (U)
 DBCSR| Multiplicative factor virtual images                                   1 (U)
 DBCSR| Use multiplication densification                                       T (D)
 DBCSR| Multiplication size stacks                                             3 (U)
 DBCSR| Use memory pool for CPU allocation                                     F (U)
 DBCSR| Number of 3D layers                                               SINGLE (U)
 DBCSR| Use MPI memory allocation                                              F (U)
 DBCSR| Use RMA algorithm                                                      F (U)
 DBCSR| Use Communication thread                                               T (U)
 DBCSR| Communication thread load                                             83 (D)
 DBCSR| MPI: My process id                                                     0
 DBCSR| MPI: Number of processes                                              90
 DBCSR| OMP: Current number of threads                                         2
 DBCSR| OMP: Max number of threads                                             2
 DBCSR| Split modifier for TAS multiplication algorithm                  1.0E+00 (U)


  **** **** ******  **  PROGRAM STARTED AT               2024-02-29 07:37:14.668
 ***** ** ***  *** **   PROGRAM STARTED ON                          ba2942fbe093
 **    ****   ******    PROGRAM STARTED BY                             <unknown>
 ***** **    ** ** **   PROGRAM PROCESS ID                                   538
  **** **  *******  **  PROGRAM STARTED IN                                  /mnt

 CP2K| version string:                                       CP2K version 2023.2
 CP2K| source code revision number:                                  git:65cca6c
 CP2K| cp2kflags: omp libint fftw3 libxc pexsi elpa parallel scalapack cosma qui
 CP2K|            p xsmm plumed2 spglib sirius libvori libbqb libtorch libvdwxc
 CP2K| is freely available from                            https://www.cp2k.org/
 CP2K| Program compiled at                          Wed Oct 18 11:40:41 UTC 2023
 CP2K| Program compiled on                                          633bb7bf566f
 CP2K| Program compiled for                                                local
 CP2K| Data directory path                                        /opt/cp2k/data
 CP2K| Input file name                                         4amp33_solvent.in

 GLOBAL| Force Environment number                                              1
 GLOBAL| Basis set file name                                      GTH_BASIS_SETS
 GLOBAL| Potential file name                                           POTENTIAL
 GLOBAL| MM Potential file name                                     MM_POTENTIAL
 GLOBAL| Coordinate file name                                      __STD_INPUT__
 GLOBAL| Method name                                                        CP2K
 GLOBAL| Project name                                              4amp33solvent
 GLOBAL| Run type                                                         ENERGY
 GLOBAL| FFT library                                                       FFTW3
 GLOBAL| Diagonalization library                                       ScaLAPACK
 GLOBAL| DGEMM library                                                      BLAS
 GLOBAL| Orthonormality check for eigenvectors                          DISABLED
 GLOBAL| Matrix multiplication library                                     COSMA
 GLOBAL| All-to-all communication in single precision                          F
 GLOBAL| FFTs using library dependent lengths                                  F
 GLOBAL| Grid backend                                                       AUTO
 GLOBAL| Global print level                                                  LOW
 GLOBAL| MPI I/O enabled                                                       T
 GLOBAL| Total number of message passing processes                            90
 GLOBAL| Number of threads for this process                                    2
 GLOBAL| This output is from process                                           0
 GLOBAL| Stack size for threads created by OpenMP (OMP_STACKSIZE)            16M
 GLOBAL| CPU model name                                            AMD EPYC 9B14
 GLOBAL| CPUID                                                              1003
 GLOBAL| Compiled for CPUID                                                    0

 *** HINT in environment.F:904 :: The compiler target flags (generic) used ***
 *** to build this binary cannot exploit all extensions of this CPU model  ***
 *** (x86_avx512). Consider compiler target flags as part of FCFLAGS and   ***
 *** CFLAGS (ARCH file).                                                   ***


 MEMORY| system memory details [Kb]
 MEMORY|                        rank 0           min           max       average
 MEMORY| MemTotal            365023344     365023344     365023344     365023344
 MEMORY| MemFree             351344960     351342784     351344960     351342808
 MEMORY| Buffers                 22524         22524         22524         22524
 MEMORY| Cached                 900864        897964        900864        897996
 MEMORY| Slab                   466820        464968        466820        464988
 MEMORY| SReclaimable            95296         95136         95296         95137
 MEMORY| MemLikelyFree       352363644     352358408     352363644     352358466


 GENERATE|  Preliminary Number of Bonds generated:                             0
 GENERATE|  Achieved consistency in connectivity generation.

 *******************************************************************************
 *******************************************************************************
 **                                                                           **
 **     #####                         ##              ##                      **
 **    ##   ##            ##          ##              ##                      **
 **   ##     ##                       ##            ######                    **
 **   ##     ##  ##   ##  ##   #####  ##  ##   ####   ##    #####    #####    **
 **   ##     ##  ##   ##  ##  ##      ## ##   ##      ##   ##   ##  ##   ##   **
 **   ##  ## ##  ##   ##  ##  ##      ####     ###    ##   ######   ######    **
 **    ##  ###   ##   ##  ##  ##      ## ##      ##   ##   ##       ##        **
 **     #######   #####   ##   #####  ##  ##  ####    ##    #####   ##        **
 **           ##                                                    ##        **
 **                                                                           **
 **                                                ... make the atoms dance   **
 **                                                                           **
 **            Copyright (C) by CP2K developers group (2000-2023)             **
 **                      J. Chem. Phys. 152, 194103 (2020)                    **
 **                                                                           **
 *******************************************************************************


 TOTAL NUMBERS AND MAXIMUM NUMBERS

  Total number of            - Atomic kinds:                                   5
                             - Atoms:                                         94
                             - Shell sets:                                   188
                             - Shells:                                       568
                             - Primitive Cartesian functions:                564
                             - Cartesian basis functions:                   1332
                             - Spherical basis functions:                   1268

  Maximum angular momentum of- Orbital basis functions:                        2
                             - Local part of the GTH pseudopotential:          2
                             - Non-local part of the GTH pseudopotential:      0


 SCF PARAMETERS         Density guess:                                    ATOMIC
                        --------------------------------------------------------
                        max_scf:                                             128
                        max_scf_history:                                       0
                        max_diis:                                              4
                        --------------------------------------------------------
                        eps_scf:                                        1.00E-06
                        eps_scf_history:                                0.00E+00
                        eps_diis:                                       1.00E-01
                        eps_eigval:                                     1.00E-05
                        --------------------------------------------------------
                        level_shift [a.u.]:                             0.000000
                        added MOs                                        30    0
                        --------------------------------------------------------
                        Mixing method:                            BROYDEN_MIXING
                                                charge density mixing in g-space
                        --------------------------------------------------------
                        No outer SCF

 Number of electrons:                                                        328
 Number of occupied orbitals:                                                164
 Number of molecular orbitals:                                               194

 Number of orbital functions:                                               1268
 Number of independent orbital functions:                                   1268

 Extrapolation method: initial_guess


 SCF WAVEFUNCTION OPTIMIZATION

  Step     Update method      Time    Convergence         Total energy    Change
  ------------------------------------------------------------------------------
     1 NoMix/Diag. 0.40E+00    0.4    11.36571279      -632.9785957188 -6.33E+02
     2 Broy./Diag. 0.40E+00    0.7     1.60399195      -599.1357936721  3.38E+01
     3 Broy./Diag. 0.40E+00    0.6     0.82076692      -625.7713100350 -2.66E+01
     4 Broy./Diag. 0.40E+00    0.6     0.44599655      -632.1809101790 -6.41E+00
     5 Broy./Diag. 0.40E+00    0.7     0.32365022      -634.7569135034 -2.58E+00
     6 Broy./Diag. 0.40E+00    0.7     0.15702213      -634.1687419959  5.88E-01
     7 Broy./Diag. 0.40E+00    0.8     0.06513294      -633.9272366025  2.42E-01
     8 Broy./Diag. 0.40E+00    0.7     0.03956493      -633.8581343562  6.91E-02
     9 Broy./Diag. 0.40E+00    0.6     0.01952861      -633.8642668100 -6.13E-03
    10 Broy./Diag. 0.40E+00    0.7     0.01114057      -633.8932771340 -2.90E-02
    11 Broy./Diag. 0.40E+00    0.7     0.00523108      -633.8981395679 -4.86E-03
  SCCS| Iteration cycle converged in 27 steps
  SCCS|
  SCCS| Polarisation charge                                      -0.044374024144
  SCCS|
  SCCS| Hartree energy of solute and solvent [Hartree]        644.50392805279535
  SCCS| Hartree energy of the solute only    [Hartree]        644.61060328542317
  SCCS| Polarisation energy                  [Hartree]         -0.10667523262767
  SCCS|                                      [kcal/mol]                  -66.940
  SCCS| Cavitation energy                    [Hartree]          0.00580292437612
  SCCS|                                      [kcal/mol]                    3.641
  SCCS| Dispersion free energy               [Hartree]         -0.10905921789843
  SCCS|                                      [kcal/mol]                  -68.436
  SCCS| Repulsion free energy                [Hartree]          0.00157421452048
  SCCS|                                      [kcal/mol]                    0.988
  SCCS| Solvation free energy                [Hartree]         -0.20835731162951
  SCCS|                                      [kcal/mol]                 -130.746
    12 Broy./Diag. 0.40E+00    1.3     0.43913027      -633.9995200945 -1.01E-01
  SCCS| Iteration cycle converged in 17 steps
  SCCS|
  SCCS| Polarisation charge                                      -0.044378335250
  SCCS|
  SCCS| Hartree energy of solute and solvent [Hartree]        644.50387753313441
  SCCS| Hartree energy of the solute only    [Hartree]        644.61047466245645
  SCCS| Polarisation energy                  [Hartree]         -0.10659712932212
  SCCS|                                      [kcal/mol]                  -66.891
  SCCS| Cavitation energy                    [Hartree]          0.00580456597930
  SCCS|                                      [kcal/mol]                    3.642
  SCCS| Dispersion free energy               [Hartree]         -0.10905885402683
  SCCS|                                      [kcal/mol]                  -68.435
  SCCS| Repulsion free energy                [Hartree]          0.00157465985380
  SCCS|                                      [kcal/mol]                    0.988
  SCCS| Solvation free energy                [Hartree]         -0.20827675751586
  SCCS|                                      [kcal/mol]                 -130.696
    13 Broy./Diag. 0.40E+00    1.0     0.00025943      -633.6845585703  3.15E-01
  SCCS| Iteration cycle converged in 16 steps
  SCCS|
  SCCS| Polarisation charge                                      -0.044378150803
  SCCS|
  SCCS| Hartree energy of solute and solvent [Hartree]        644.50380875984217
  SCCS| Hartree energy of the solute only    [Hartree]        644.61035903541347
  SCCS| Polarisation energy                  [Hartree]         -0.10655027557131
  SCCS|                                      [kcal/mol]                  -66.861
  SCCS| Cavitation energy                    [Hartree]          0.00580665897069
  SCCS|                                      [kcal/mol]                    3.644
  SCCS| Dispersion free energy               [Hartree]         -0.10905839146171
  SCCS|                                      [kcal/mol]                  -68.435
  SCCS| Repulsion free energy                [Hartree]          0.00157522763949
  SCCS|                                      [kcal/mol]                    0.988
  SCCS| Solvation free energy                [Hartree]         -0.20822678042284
  SCCS|                                      [kcal/mol]                 -130.664
    14 Broy./Diag. 0.40E+00    0.9     0.00025193      -633.6852327086 -6.74E-04
  SCCS| Iteration cycle converged in 18 steps
  SCCS|
  SCCS| Polarisation charge                                      -0.044365208263
  SCCS|
  SCCS| Hartree energy of solute and solvent [Hartree]        644.50444813363924
  SCCS| Hartree energy of the solute only    [Hartree]        644.61118882519952
  SCCS| Polarisation energy                  [Hartree]         -0.10674069156035
  SCCS|                                      [kcal/mol]                  -66.981
  SCCS| Cavitation energy                    [Hartree]          0.00580318515200
  SCCS|                                      [kcal/mol]                    3.642
  SCCS| Dispersion free energy               [Hartree]         -0.10905914726038
  SCCS|                                      [kcal/mol]                  -68.436
  SCCS| Repulsion free energy                [Hartree]          0.00157428526364
  SCCS|                                      [kcal/mol]                    0.988
  SCCS| Solvation free energy                [Hartree]         -0.20842236840509
  SCCS|                                      [kcal/mol]                 -130.787
    15 Broy./Diag. 0.40E+00    0.9     0.00067504      -633.6846353281  5.97E-04
  SCCS| Iteration cycle converged in 17 steps
  SCCS|
  SCCS| Polarisation charge                                      -0.044353552290
  SCCS|
  SCCS| Hartree energy of solute and solvent [Hartree]        644.50484536639078
  SCCS| Hartree energy of the solute only    [Hartree]        644.61169026064465
  SCCS| Polarisation energy                  [Hartree]         -0.10684489425396
  SCCS|                                      [kcal/mol]                  -67.046
  SCCS| Cavitation energy                    [Hartree]          0.00580296327033
  SCCS|                                      [kcal/mol]                    3.641
  SCCS| Dispersion free energy               [Hartree]         -0.10905918646011
  SCCS|                                      [kcal/mol]                  -68.436
  SCCS| Repulsion free energy                [Hartree]          0.00157422507169
  SCCS|                                      [kcal/mol]                    0.988
  SCCS| Solvation free energy                [Hartree]         -0.20852689237205
  SCCS|                                      [kcal/mol]                 -130.853
    16 Broy./Diag. 0.40E+00    1.0     0.00030394      -633.6836425057  9.93E-04
  SCCS| Iteration cycle converged in 18 steps
  SCCS|
  SCCS| Polarisation charge                                      -0.044404179376
  SCCS|
  SCCS| Hartree energy of solute and solvent [Hartree]        644.50372730453216
  SCCS| Hartree energy of the solute only    [Hartree]        644.61028096265159
  SCCS| Polarisation energy                  [Hartree]         -0.10655365811944
  SCCS|                                      [kcal/mol]                  -66.863
  SCCS| Cavitation energy                    [Hartree]          0.00579744182625
  SCCS|                                      [kcal/mol]                    3.638
  SCCS| Dispersion free energy               [Hartree]         -0.10906042557340
  SCCS|                                      [kcal/mol]                  -68.436
  SCCS| Repulsion free energy                [Hartree]          0.00157272721700
  SCCS|                                      [kcal/mol]                    0.987
  SCCS| Solvation free energy                [Hartree]         -0.20824391464959
  SCCS|                                      [kcal/mol]                 -130.675
    17 Broy./Diag. 0.40E+00    0.9     0.00115947      -633.6844645202 -8.22E-04
  SCCS| Iteration cycle converged in 16 steps
  SCCS|
  SCCS| Polarisation charge                                      -0.044413321945
  SCCS|
  SCCS| Hartree energy of solute and solvent [Hartree]        644.50333028104114
  SCCS| Hartree energy of the solute only    [Hartree]        644.60991320489904
  SCCS| Polarisation energy                  [Hartree]         -0.10658292385787
  SCCS|                                      [kcal/mol]                  -66.882
  SCCS| Cavitation energy                    [Hartree]          0.00579215905519
  SCCS|                                      [kcal/mol]                    3.635
  SCCS| Dispersion free energy               [Hartree]         -0.10906155943215
  SCCS|                                      [kcal/mol]                  -68.437
  SCCS| Repulsion free energy                [Hartree]          0.00157129410942
  SCCS|                                      [kcal/mol]                    0.986
  SCCS| Solvation free energy                [Hartree]         -0.20828103012542
  SCCS|                                      [kcal/mol]                 -130.698
    18 Broy./Diag. 0.40E+00    0.9     0.00059191      -633.6851710892 -7.07E-04
  SCCS| Iteration cycle converged in 18 steps
  SCCS|
  SCCS| Polarisation charge                                      -0.044424986806
  SCCS|
  SCCS| Hartree energy of solute and solvent [Hartree]        644.50317247698354
  SCCS| Hartree energy of the solute only    [Hartree]        644.60950886868375
  SCCS| Polarisation energy                  [Hartree]         -0.10633639170022
  SCCS|                                      [kcal/mol]                  -66.727
  SCCS| Cavitation energy                    [Hartree]          0.00580300168007
  SCCS|                                      [kcal/mol]                    3.641
  SCCS| Dispersion free energy               [Hartree]         -0.10905932828610
  SCCS|                                      [kcal/mol]                  -68.436
  SCCS| Repulsion free energy                [Hartree]          0.00157423549146
  SCCS|                                      [kcal/mol]                    0.988
  SCCS| Solvation free energy                [Hartree]         -0.20801848281479
  SCCS|                                      [kcal/mol]                 -130.534
    19 Broy./Diag. 0.40E+00    0.9     0.00095393      -633.6853039626 -1.33E-04
  SCCS| Iteration cycle converged in 14 steps
  SCCS|
  SCCS| Polarisation charge                                      -0.044418772582
  SCCS|
  SCCS| Hartree energy of solute and solvent [Hartree]        644.50355848976892
  SCCS| Hartree energy of the solute only    [Hartree]        644.60991641587407
  SCCS| Polarisation energy                  [Hartree]         -0.10635792610507
  SCCS|                                      [kcal/mol]                  -66.741
  SCCS| Cavitation energy                    [Hartree]          0.00580152339600
  SCCS|                                      [kcal/mol]                    3.641
  SCCS| Dispersion free energy               [Hartree]         -0.10905952535764
  SCCS|                                      [kcal/mol]                  -68.436
  SCCS| Repulsion free energy                [Hartree]          0.00157383446327
  SCCS|                                      [kcal/mol]                    0.988
  SCCS| Solvation free energy                [Hartree]         -0.20804209360344
  SCCS|                                      [kcal/mol]                 -130.548
    20 Broy./Diag. 0.40E+00    0.9     0.00067409      -633.6850760072  2.28E-04
  SCCS| Iteration cycle converged in 28 steps
  SCCS|
  SCCS| Polarisation charge                                      -0.071012937669
  SCCS|
  SCCS| Hartree energy of solute and solvent [Hartree]        644.71976404086365
  SCCS| Hartree energy of the solute only    [Hartree]        644.48990551061320
  SCCS| Polarisation energy                  [Hartree]          0.22985853025047
  SCCS|                                      [kcal/mol]                  144.238
  SCCS| Cavitation energy                    [Hartree]          0.00632538204910
  SCCS|                                      [kcal/mol]                    3.969
  SCCS| Dispersion free energy               [Hartree]         -0.10894686713596
  SCCS|                                      [kcal/mol]                  -68.365
  SCCS| Repulsion free energy                [Hartree]          0.00171594658553
  SCCS|                                      [kcal/mol]                    1.077
  SCCS| Solvation free energy                [Hartree]          0.12895299174914
  SCCS|                                      [kcal/mol]                   80.919
    21 Broy./Diag. 0.40E+00    1.0     0.32098997      -633.5027605661  1.82E-01
  SCCS| Iteration cycle converged in 26 steps
  SCCS|
  SCCS| Polarisation charge                                      -0.078410290601
  SCCS|
  SCCS| Hartree energy of solute and solvent [Hartree]        644.80885759786497
  SCCS| Hartree energy of the solute only    [Hartree]        644.48315658128047
  SCCS| Polarisation energy                  [Hartree]          0.32570101658437
  SCCS|                                      [kcal/mol]                  204.380
  SCCS| Cavitation energy                    [Hartree]          0.00641531117236
  SCCS|                                      [kcal/mol]                    4.026
  SCCS| Dispersion free energy               [Hartree]         -0.10892799837753
  SCCS|                                      [kcal/mol]                  -68.353
  SCCS| Repulsion free energy                [Hartree]          0.00174034251463
  SCCS|                                      [kcal/mol]                    1.092
  SCCS| Solvation free energy                [Hartree]          0.22492867189383
  SCCS|                                      [kcal/mol]                  141.145
    22 Broy./Diag. 0.40E+00    1.0     0.08233679      -633.0093333025  4.93E-01
  SCCS| Iteration cycle converged in 24 steps
  SCCS|
  SCCS| Polarisation charge                                      -0.080906489009
  SCCS|
  SCCS| Hartree energy of solute and solvent [Hartree]        644.84041615294382
  SCCS| Hartree energy of the solute only    [Hartree]        644.48947170819326
  SCCS| Polarisation energy                  [Hartree]          0.35094444475049
  SCCS|                                      [kcal/mol]                  220.221
  SCCS| Cavitation energy                    [Hartree]          0.00631402342697
  SCCS|                                      [kcal/mol]                    3.962
  SCCS| Dispersion free energy               [Hartree]         -0.10895068593900
  SCCS|                                      [kcal/mol]                  -68.368
  SCCS| Repulsion free energy                [Hartree]          0.00171286522401
  SCCS|                                      [kcal/mol]                    1.075
  SCCS| Solvation free energy                [Hartree]          0.25002064746247
  SCCS|                                      [kcal/mol]                  156.890
    23 Broy./Diag. 0.40E+00    1.0     0.01573979      -632.8100927450  1.99E-01
  SCCS| Iteration cycle converged in 25 steps
  SCCS|
  SCCS| Polarisation charge                                      -0.084970040656
  SCCS|
  SCCS| Hartree energy of solute and solvent [Hartree]        644.88437576196543
  SCCS| Hartree energy of the solute only    [Hartree]        644.49158749614924
  SCCS| Polarisation energy                  [Hartree]          0.39278826581617
  SCCS|                                      [kcal/mol]                  246.478
  SCCS| Cavitation energy                    [Hartree]          0.00617055442916
  SCCS|                                      [kcal/mol]                    3.872
  SCCS| Dispersion free energy               [Hartree]         -0.10898278276309
  SCCS|                                      [kcal/mol]                  -68.388
  SCCS| Repulsion free energy                [Hartree]          0.00167394502362
  SCCS|                                      [kcal/mol]                    1.050
  SCCS| Solvation free energy                [Hartree]          0.29164998250585
  SCCS|                                      [kcal/mol]                  183.013
    24 Broy./Diag. 0.40E+00    1.0     0.01419750      -632.7202535455  8.98E-02
  SCCS| Iteration cycle converged in 28 steps
  SCCS|
  SCCS| Polarisation charge                                      -0.099293061740
  SCCS|
  SCCS| Hartree energy of solute and solvent [Hartree]        645.06006440218789
  SCCS| Hartree energy of the solute only    [Hartree]        644.48266910706138
  SCCS| Polarisation energy                  [Hartree]          0.57739529512663
  SCCS|                                      [kcal/mol]                  362.321
  SCCS| Cavitation energy                    [Hartree]          0.00629613876270
  SCCS|                                      [kcal/mol]                    3.951
  SCCS| Dispersion free energy               [Hartree]         -0.10895764735870
  SCCS|                                      [kcal/mol]                  -68.372
  SCCS| Repulsion free energy                [Hartree]          0.00170801348093
  SCCS|                                      [kcal/mol]                    1.072
  SCCS| Solvation free energy                [Hartree]          0.47644180001156
  SCCS|                                      [kcal/mol]                  298.972
    25 Broy./Diag. 0.40E+00    1.2     0.16431034      -632.4842700974  2.36E-01
  SCCS| Iteration cycle converged in 27 steps
  SCCS|
  SCCS| Polarisation charge                                      -0.078787314195
  SCCS|
  SCCS| Hartree energy of solute and solvent [Hartree]        644.82795812302163
  SCCS| Hartree energy of the solute only    [Hartree]        644.50550531874205
  SCCS| Polarisation energy                  [Hartree]          0.32245280427958
  SCCS|                                      [kcal/mol]                  202.342
  SCCS| Cavitation energy                    [Hartree]          0.00629078090107
  SCCS|                                      [kcal/mol]                    3.948
  SCCS| Dispersion free energy               [Hartree]         -0.10895541708122
  SCCS|                                      [kcal/mol]                  -68.371
  SCCS| Repulsion free energy                [Hartree]          0.00170656000282
  SCCS|                                      [kcal/mol]                    1.071
  SCCS| Solvation free energy                [Hartree]          0.22149472810225
  SCCS|                                      [kcal/mol]                  138.990
    26 Broy./Diag. 0.40E+00    1.1     0.20902074      -632.3788177551  1.05E-01
  SCCS| Iteration cycle converged in 25 steps
  SCCS|
  SCCS| Polarisation charge                                      -0.076186738423
  SCCS|
  SCCS| Hartree energy of solute and solvent [Hartree]        644.80956811908595
  SCCS| Hartree energy of the solute only    [Hartree]        644.51688588405523
  SCCS| Polarisation energy                  [Hartree]          0.29268223503060
  SCCS|                                      [kcal/mol]                  183.661
  SCCS| Cavitation energy                    [Hartree]          0.00634250292894
  SCCS|                                      [kcal/mol]                    3.980
  SCCS| Dispersion free energy               [Hartree]         -0.10894387364162
  SCCS|                                      [kcal/mol]                  -68.363
  SCCS| Repulsion free energy                [Hartree]          0.00172059112954
  SCCS|                                      [kcal/mol]                    1.080
  SCCS| Solvation free energy                [Hartree]          0.19180145544747
  SCCS|                                      [kcal/mol]                  120.357
    27 Broy./Diag. 0.40E+00    1.1     0.05759992      -632.8429180384 -4.64E-01
  SCCS| Iteration cycle converged in 26 steps
  SCCS|
  SCCS| Polarisation charge                                      -0.081265390085
  SCCS|
  SCCS| Hartree energy of solute and solvent [Hartree]        644.86026568226453
  SCCS| Hartree energy of the solute only    [Hartree]        644.51263312095830
  SCCS| Polarisation energy                  [Hartree]          0.34763256130612
  SCCS|                                      [kcal/mol]                  218.143
  SCCS| Cavitation energy                    [Hartree]          0.00621939255570
  SCCS|                                      [kcal/mol]                    3.903
  SCCS| Dispersion free energy               [Hartree]         -0.10897113225323
  SCCS|                                      [kcal/mol]                  -68.380
  SCCS| Repulsion free energy                [Hartree]          0.00168719380698
  SCCS|                                      [kcal/mol]                    1.059
  SCCS| Solvation free energy                [Hartree]          0.24656801541557
  SCCS|                                      [kcal/mol]                  154.724
    28 Broy./Diag. 0.40E+00    1.1     0.07521308      -632.8312208710  1.17E-02
  SCCS| Iteration cycle converged in 22 steps
  SCCS|
  SCCS| Polarisation charge                                      -0.081098262117
  SCCS|
  SCCS| Hartree energy of solute and solvent [Hartree]        644.86811408542712
  SCCS| Hartree energy of the solute only    [Hartree]        644.52520215101049
  SCCS| Polarisation energy                  [Hartree]          0.34291193441676
  SCCS|                                      [kcal/mol]                  215.180
  SCCS| Cavitation energy                    [Hartree]          0.00619656664137
  SCCS|                                      [kcal/mol]                    3.888
  SCCS| Dispersion free energy               [Hartree]         -0.10897597751582
  SCCS|                                      [kcal/mol]                  -68.383
  SCCS| Repulsion free energy                [Hartree]          0.00168100160397
  SCCS|                                      [kcal/mol]                    1.055
  SCCS| Solvation free energy                [Hartree]          0.24181352514628
  SCCS|                                      [kcal/mol]                  151.740
    29 Broy./Diag. 0.40E+00    1.0     0.01660369      -632.7355964024  9.56E-02
  SCCS| Iteration cycle converged in 24 steps
  SCCS|
  SCCS| Polarisation charge                                      -0.078766557388
  SCCS|
  SCCS| Hartree energy of solute and solvent [Hartree]        644.86539050678050
  SCCS| Hartree energy of the solute only    [Hartree]        644.55249750372820
  SCCS| Polarisation energy                  [Hartree]          0.31289300305229
  SCCS|                                      [kcal/mol]                  196.343
  SCCS| Cavitation energy                    [Hartree]          0.00620144715099
  SCCS|                                      [kcal/mol]                    3.891
  SCCS| Dispersion free energy               [Hartree]         -0.10897429047275
  SCCS|                                      [kcal/mol]                  -68.382
  SCCS| Repulsion free energy                [Hartree]          0.00168232558627
  SCCS|                                      [kcal/mol]                    1.056
  SCCS| Solvation free energy                [Hartree]          0.21180248531680
  SCCS|                                      [kcal/mol]                  132.908
    30 Broy./Diag. 0.40E+00    1.0     0.03385758      -632.7319291945  3.67E-03
  SCCS| Iteration cycle converged in 24 steps
  SCCS|
  SCCS| Polarisation charge                                      -0.080877847454
  SCCS|
  SCCS| Hartree energy of solute and solvent [Hartree]        644.91067059037539
  SCCS| Hartree energy of the solute only    [Hartree]        644.56848398438262
  SCCS| Polarisation energy                  [Hartree]          0.34218660599276
  SCCS|                                      [kcal/mol]                  214.725
  SCCS| Cavitation energy                    [Hartree]          0.00625540823355
  SCCS|                                      [kcal/mol]                    3.925
  SCCS| Dispersion free energy               [Hartree]         -0.10896222009198
  SCCS|                                      [kcal/mol]                  -68.375
  SCCS| Repulsion free energy                [Hartree]          0.00169696412266
  SCCS|                                      [kcal/mol]                    1.065
  SCCS| Solvation free energy                [Hartree]          0.24117675825699
  SCCS|                                      [kcal/mol]                  151.341
    31 Broy./Diag. 0.40E+00    1.1     0.01234091      -632.7041503999  2.78E-02
  SCCS| Iteration cycle converged in 23 steps
  SCCS|
  SCCS| Polarisation charge                                      -0.082223086144
  SCCS|
  SCCS| Hartree energy of solute and solvent [Hartree]        644.89789614030735
  SCCS| Hartree energy of the solute only    [Hartree]        644.54443498531077
  SCCS| Polarisation energy                  [Hartree]          0.35346115499652
  SCCS|                                      [kcal/mol]                  221.800
  SCCS| Cavitation energy                    [Hartree]          0.00619969346552
  SCCS|                                      [kcal/mol]                    3.890
  SCCS| Dispersion free energy               [Hartree]         -0.10897576296834
  SCCS|                                      [kcal/mol]                  -68.383
  SCCS| Repulsion free energy                [Hartree]          0.00168184984732
  SCCS|                                      [kcal/mol]                    1.055
  SCCS| Solvation free energy                [Hartree]          0.25236693534101
  SCCS|                                      [kcal/mol]                  158.363
    32 Broy./Diag. 0.40E+00    1.0     0.02819501      -632.6465346686  5.76E-02
  SCCS| Iteration cycle converged in 25 steps
  SCCS|
  SCCS| Polarisation charge                                      -0.087334891970
  SCCS|
  SCCS| Hartree energy of solute and solvent [Hartree]        644.91316147142823
  SCCS| Hartree energy of the solute only    [Hartree]        644.50887446985871
  SCCS| Polarisation energy                  [Hartree]          0.40428700156962
  SCCS|                                      [kcal/mol]                  253.694
  SCCS| Cavitation energy                    [Hartree]          0.00606492082075
  SCCS|                                      [kcal/mol]                    3.806
  SCCS| Dispersion free energy               [Hartree]         -0.10900776258877
  SCCS|                                      [kcal/mol]                  -68.403
  SCCS| Repulsion free energy                [Hartree]          0.00164528878938
  SCCS|                                      [kcal/mol]                    1.032
  SCCS| Solvation free energy                [Hartree]          0.30298944859098
  SCCS|                                      [kcal/mol]                  190.129
    33 Broy./Diag. 0.40E+00    1.0     0.05491735      -632.6406683253  5.87E-03
  SCCS| Iteration cycle converged in 24 steps
  SCCS|
  SCCS| Polarisation charge                                      -0.087896890878
  SCCS|
  SCCS| Hartree energy of solute and solvent [Hartree]        644.89358807432416
  SCCS| Hartree energy of the solute only    [Hartree]        644.47395217447297
  SCCS| Polarisation energy                  [Hartree]          0.41963589985123
  SCCS|                                      [kcal/mol]                  263.326
  SCCS| Cavitation energy                    [Hartree]          0.00619770419483
  SCCS|                                      [kcal/mol]                    3.889
  SCCS| Dispersion free energy               [Hartree]         -0.10898006997643
  SCCS|                                      [kcal/mol]                  -68.386
  SCCS| Repulsion free energy                [Hartree]          0.00168131019893
  SCCS|                                      [kcal/mol]                    1.055
  SCCS| Solvation free energy                [Hartree]          0.31853484426855
  SCCS|                                      [kcal/mol]                  199.884
    34 Broy./Diag. 0.40E+00    1.0     0.07845908      -632.6236334029  1.70E-02
  SCCS| Iteration cycle converged in 25 steps
  SCCS|
  SCCS| Polarisation charge                                      -0.081658113169
  SCCS|
  SCCS| Hartree energy of solute and solvent [Hartree]        644.84307507245762
  SCCS| Hartree energy of the solute only    [Hartree]        644.49746960150674
  SCCS| Polarisation energy                  [Hartree]          0.34560547095096
  SCCS|                                      [kcal/mol]                  216.871
  SCCS| Cavitation energy                    [Hartree]          0.00617218082282
  SCCS|                                      [kcal/mol]                    3.873
  SCCS| Dispersion free energy               [Hartree]         -0.10898318553379
  SCCS|                                      [kcal/mol]                  -68.388
  SCCS| Repulsion free energy                [Hartree]          0.00167438623090
  SCCS|                                      [kcal/mol]                    1.051
  SCCS| Solvation free energy                [Hartree]          0.24446885247090
  SCCS|                                      [kcal/mol]                  153.407
    35 Broy./Diag. 0.40E+00    1.0     0.09861754      -632.6780043257 -5.44E-02
  SCCS| Iteration cycle converged in 26 steps
  SCCS|
  SCCS| Polarisation charge                                      -0.065552666507
  SCCS|
  SCCS| Hartree energy of solute and solvent [Hartree]        644.79935124675546
  SCCS| Hartree energy of the solute only    [Hartree]        644.64431627406566
  SCCS| Polarisation energy                  [Hartree]          0.15503497268977
  SCCS|                                      [kcal/mol]                   97.286
  SCCS| Cavitation energy                    [Hartree]          0.00605341849521
  SCCS|                                      [kcal/mol]                    3.799
  SCCS| Dispersion free energy               [Hartree]         -0.10900072820254
  SCCS|                                      [kcal/mol]                  -68.399
  SCCS| Repulsion free energy                [Hartree]          0.00164216844406
  SCCS|                                      [kcal/mol]                    1.030
  SCCS| Solvation free energy                [Hartree]          0.05372983142650
  SCCS|                                      [kcal/mol]                   33.716
    36 Broy./Diag. 0.40E+00    1.0     0.23805121      -632.7846563983 -1.07E-01
  SCCS| Iteration cycle converged in 30 steps
  SCCS|
  SCCS| Polarisation charge                                      -0.109653657678
  SCCS|
  SCCS| Hartree energy of solute and solvent [Hartree]        645.09274879440886
  SCCS| Hartree energy of the solute only    [Hartree]        644.40012208053395
  SCCS| Polarisation energy                  [Hartree]          0.69262671387488
  SCCS|                                      [kcal/mol]                  434.630
  SCCS| Cavitation energy                    [Hartree]          0.00638354386622
  SCCS|                                      [kcal/mol]                    4.006
  SCCS| Dispersion free energy               [Hartree]         -0.10894511276225
  SCCS|                                      [kcal/mol]                  -68.364
  SCCS| Repulsion free energy                [Hartree]          0.00173172469517
  SCCS|                                      [kcal/mol]                    1.087
  SCCS| Solvation free energy                [Hartree]          0.59179686967402
  SCCS|                                      [kcal/mol]                  371.358
    37 Broy./Diag. 0.40E+00    1.1     0.66051153      -632.6585502575  1.26E-01
  SCCS| Iteration cycle converged in 27 steps
  SCCS|
  SCCS| Polarisation charge                                      -0.083362905978
  SCCS|
  SCCS| Hartree energy of solute and solvent [Hartree]        644.91647379430788
  SCCS| Hartree energy of the solute only    [Hartree]        644.54769890659907
  SCCS| Polarisation energy                  [Hartree]          0.36877488770893
  SCCS|                                      [kcal/mol]                  231.410
  SCCS| Cavitation energy                    [Hartree]          0.00617776064037
  SCCS|                                      [kcal/mol]                    3.877
  SCCS| Dispersion free energy               [Hartree]         -0.10898018155151
  SCCS|                                      [kcal/mol]                  -68.386
  SCCS| Repulsion free energy                [Hartree]          0.00167589992111
  SCCS|                                      [kcal/mol]                    1.052
  SCCS| Solvation free energy                [Hartree]          0.26764836671889
  SCCS|                                      [kcal/mol]                  167.952
    38 Broy./Diag. 0.40E+00    1.0     0.46662974      -632.2111105430  4.47E-01
  SCCS| Iteration cycle converged in 26 steps
  SCCS|
  SCCS| Polarisation charge                                      -0.057348566376
  SCCS|
  SCCS| Hartree energy of solute and solvent [Hartree]        644.92467741420273
  SCCS| Hartree energy of the solute only    [Hartree]        644.86256749997005
  SCCS| Polarisation energy                  [Hartree]          0.06210991423277
  SCCS|                                      [kcal/mol]                   38.975
  SCCS| Cavitation energy                    [Hartree]          0.00584440588647
  SCCS|                                      [kcal/mol]                    3.667
  SCCS| Dispersion free energy               [Hartree]         -0.10903877110648
  SCCS|                                      [kcal/mol]                  -68.423
  SCCS| Repulsion free energy                [Hartree]          0.00158546760457
  SCCS|                                      [kcal/mol]                    0.995
  SCCS| Solvation free energy                [Hartree]         -0.03949898338266
  SCCS|                                      [kcal/mol]                  -24.786
    39 Broy./Diag. 0.40E+00    1.0     0.30392040      -632.5190807967 -3.08E-01
  SCCS| Iteration cycle converged in 24 steps
  SCCS|
  SCCS| Polarisation charge                                      -0.053426559658
  SCCS|
  SCCS| Hartree energy of solute and solvent [Hartree]        644.96709441475718
  SCCS| Hartree energy of the solute only    [Hartree]        644.94782281882726
  SCCS| Polarisation energy                  [Hartree]          0.01927159592994
  SCCS|                                      [kcal/mol]                   12.093
  SCCS| Cavitation energy                    [Hartree]          0.00576756474898
  SCCS|                                      [kcal/mol]                    3.619
  SCCS| Dispersion free energy               [Hartree]         -0.10905295187920
  SCCS|                                      [kcal/mol]                  -68.432
  SCCS| Repulsion free energy                [Hartree]          0.00156462217792
  SCCS|                                      [kcal/mol]                    0.982
  SCCS| Solvation free energy                [Hartree]         -0.08244916902235
  SCCS|                                      [kcal/mol]                  -51.738
    40 Broy./Diag. 0.40E+00    1.0     0.03541820      -632.5487023807 -2.96E-02
  SCCS| Iteration cycle converged in 25 steps
  SCCS|
  SCCS| Polarisation charge                                      -0.042643933632
  SCCS|
  SCCS| Hartree energy of solute and solvent [Hartree]        645.16754733135929
  SCCS| Hartree energy of the solute only    [Hartree]        645.25365919294234
  SCCS| Polarisation energy                  [Hartree]         -0.08611186158305
  SCCS|                                      [kcal/mol]                  -54.036
  SCCS| Cavitation energy                    [Hartree]          0.00562908359415
  SCCS|                                      [kcal/mol]                    3.532
  SCCS| Dispersion free energy               [Hartree]         -0.10907487971657
  SCCS|                                      [kcal/mol]                  -68.446
  SCCS| Repulsion free energy                [Hartree]          0.00152705507716
  SCCS|                                      [kcal/mol]                    0.958
  SCCS| Solvation free energy                [Hartree]         -0.18803060262831
  SCCS|                                      [kcal/mol]                 -117.991
    41 Broy./Diag. 0.40E+00    1.0     0.09133058      -632.2423010167  3.06E-01
  SCCS| Iteration cycle converged in 21 steps
  SCCS|
  SCCS| Polarisation charge                                      -0.041909953569
  SCCS|
  SCCS| Hartree energy of solute and solvent [Hartree]        645.16847642447419
  SCCS| Hartree energy of the solute only    [Hartree]        645.26132277602051
  SCCS| Polarisation energy                  [Hartree]         -0.09284635154623
  SCCS|                                      [kcal/mol]                  -58.262
  SCCS| Cavitation energy                    [Hartree]          0.00558581863518
  SCCS|                                      [kcal/mol]                    3.505
  SCCS| Dispersion free energy               [Hartree]         -0.10908400950116
  SCCS|                                      [kcal/mol]                  -68.451
  SCCS| Repulsion free energy                [Hartree]          0.00151531818000
  SCCS|                                      [kcal/mol]                    0.951
  SCCS| Solvation free energy                [Hartree]         -0.19482922423220
  SCCS|                                      [kcal/mol]                 -122.257
    42 Broy./Diag. 0.40E+00    0.9     0.00586911      -631.9740861432  2.68E-01
  SCCS| Iteration cycle converged in 22 steps
  SCCS|
  SCCS| Polarisation charge                                      -0.042897025231
  SCCS|
  SCCS| Hartree energy of solute and solvent [Hartree]        645.03861751321074
  SCCS| Hartree energy of the solute only    [Hartree]        645.12682976422855
  SCCS| Polarisation energy                  [Hartree]         -0.08821225101786
  SCCS|                                      [kcal/mol]                  -55.354
  SCCS| Cavitation energy                    [Hartree]          0.00549860404143
  SCCS|                                      [kcal/mol]                    3.450
  SCCS| Dispersion free energy               [Hartree]         -0.10910566244801
  SCCS|                                      [kcal/mol]                  -68.465
  SCCS| Repulsion free energy                [Hartree]          0.00149165864715
  SCCS|                                      [kcal/mol]                    0.936
  SCCS| Solvation free energy                [Hartree]         -0.19032765077729
  SCCS|                                      [kcal/mol]                 -119.432
    43 Broy./Diag. 0.40E+00    0.9     0.03440587      -632.1202065689 -1.46E-01
  SCCS| Iteration cycle converged in 25 steps
  SCCS|
  SCCS| Polarisation charge                                      -0.049780040635
  SCCS|
  SCCS| Hartree energy of solute and solvent [Hartree]        644.94409477699651
  SCCS| Hartree energy of the solute only    [Hartree]        644.96612640681690
  SCCS| Polarisation energy                  [Hartree]         -0.02203162982041
  SCCS|                                      [kcal/mol]                  -13.825
  SCCS| Cavitation energy                    [Hartree]          0.00557852799746
  SCCS|                                      [kcal/mol]                    3.501
  SCCS| Dispersion free energy               [Hartree]         -0.10909285503745
  SCCS|                                      [kcal/mol]                  -68.457
  SCCS| Repulsion free energy                [Hartree]          0.00151334037932
  SCCS|                                      [kcal/mol]                    0.950
  SCCS| Solvation free energy                [Hartree]         -0.12403261648108
  SCCS|                                      [kcal/mol]                  -77.832
    44 Broy./Diag. 0.40E+00    1.0     0.05584635      -632.4316373177 -3.11E-01
  SCCS| Iteration cycle converged in 23 steps
  SCCS|
  SCCS| Polarisation charge                                      -0.047384869007
  SCCS|
  SCCS| Hartree energy of solute and solvent [Hartree]        644.98055739534448
  SCCS| Hartree energy of the solute only    [Hartree]        645.02567854293557
  SCCS| Polarisation energy                  [Hartree]         -0.04512114759117
  SCCS|                                      [kcal/mol]                  -28.314
  SCCS| Cavitation energy                    [Hartree]          0.00543856637758
  SCCS|                                      [kcal/mol]                    3.413
  SCCS| Dispersion free energy               [Hartree]         -0.10912141622960
  SCCS|                                      [kcal/mol]                  -68.475
  SCCS| Repulsion free energy                [Hartree]          0.00147537165872
  SCCS|                                      [kcal/mol]                    0.926
  SCCS| Solvation free energy                [Hartree]         -0.14732862578447
  SCCS|                                      [kcal/mol]                  -92.450
    45 Broy./Diag. 0.40E+00    1.1     0.02688061      -632.5063764205 -7.47E-02
  SCCS| Iteration cycle converged in 29 steps
  SCCS|
  SCCS| Polarisation charge                                      -0.069448374691
  SCCS|
  SCCS| Hartree energy of solute and solvent [Hartree]        644.93095525004378
  SCCS| Hartree energy of the solute only    [Hartree]        644.73251712743991
  SCCS| Polarisation energy                  [Hartree]          0.19843812260376
  SCCS|                                      [kcal/mol]                  124.522
  SCCS| Cavitation energy                    [Hartree]          0.00558955423917
  SCCS|                                      [kcal/mol]                    3.507
  SCCS| Dispersion free energy               [Hartree]         -0.10909919794024
  SCCS|                                      [kcal/mol]                  -68.461
  SCCS| Repulsion free energy                [Hartree]          0.00151633157284
  SCCS|                                      [kcal/mol]                    0.952
  SCCS| Solvation free energy                [Hartree]          0.09644481047552
  SCCS|                                      [kcal/mol]                   60.520
    46 Broy./Diag. 0.40E+00    1.1     0.22695751      -632.5553269588 -4.90E-02
  SCCS| Iteration cycle converged in 36 steps
  SCCS|
  SCCS| Polarisation charge                                      -0.189977041878
  SCCS|
  SCCS| Hartree energy of solute and solvent [Hartree]        645.91244440917217
  SCCS| Hartree energy of the solute only    [Hartree]        644.24526412855482
  SCCS| Polarisation energy                  [Hartree]          1.66718028061725
  SCCS|                                      [kcal/mol]                 1046.171
  SCCS| Cavitation energy                    [Hartree]          0.00632639300103
  SCCS|                                      [kcal/mol]                    3.970
  SCCS| Dispersion free energy               [Hartree]         -0.10897081327067
  SCCS|                                      [kcal/mol]                  -68.380
  SCCS| Repulsion free energy                [Hartree]          0.00171622083608
  SCCS|                                      [kcal/mol]                    1.077
  SCCS| Solvation free energy                [Hartree]          1.56625208118369
  SCCS|                                      [kcal/mol]                  982.838
    47 Broy./Diag. 0.40E+00    1.2     1.76750150      -631.6758889580  8.79E-01
  SCCS| Iteration cycle converged in 32 steps
  SCCS|
  SCCS| Polarisation charge                                      -0.167363566364
  SCCS|
  SCCS| Hartree energy of solute and solvent [Hartree]        645.67411885668412
  SCCS| Hartree energy of the solute only    [Hartree]        644.29054338245021
  SCCS| Polarisation energy                  [Hartree]          1.38357547423379
  SCCS|                                      [kcal/mol]                  868.207
  SCCS| Cavitation energy                    [Hartree]          0.00621669010186
  SCCS|                                      [kcal/mol]                    3.901
  SCCS| Dispersion free energy               [Hartree]         -0.10899103708671
  SCCS|                                      [kcal/mol]                  -68.393
  SCCS| Repulsion free energy                [Hartree]          0.00168646068661
  SCCS|                                      [kcal/mol]                    1.058
  SCCS| Solvation free energy                [Hartree]          1.28248758793556
  SCCS|                                      [kcal/mol]                  804.773
    48 Broy./Diag. 0.40E+00    1.2     0.55758301      -629.9853976809  1.69E+00
  SCCS| Iteration cycle converged in 37 steps
  SCCS|
  SCCS| Polarisation charge                                      -0.276050827613
  SCCS|
  SCCS| Hartree energy of solute and solvent [Hartree]        646.97939478700778
  SCCS| Hartree energy of the solute only    [Hartree]        644.25361846410101
  SCCS| Polarisation energy                  [Hartree]          2.72577632290690
  SCCS|                                      [kcal/mol]                 1710.450
  SCCS| Cavitation energy                    [Hartree]          0.00636069700160
  SCCS|                                      [kcal/mol]                    3.991
  SCCS| Dispersion free energy               [Hartree]         -0.10896698590804
  SCCS|                                      [kcal/mol]                  -68.378
  SCCS| Repulsion free energy                [Hartree]          0.00172552680878
  SCCS|                                      [kcal/mol]                    1.083
  SCCS| Solvation free energy                [Hartree]          2.62489556080923
  SCCS|                                      [kcal/mol]                 1647.147
    49 Broy./Diag. 0.40E+00    1.2     1.53325833      -629.1358157963  8.50E-01
  SCCS| Iteration cycle converged in 39 steps
  SCCS|
  SCCS| Polarisation charge                                      -0.358359098438
  SCCS|
  SCCS| Hartree energy of solute and solvent [Hartree]        647.57561877780677
  SCCS| Hartree energy of the solute only    [Hartree]        643.77676328231314
  SCCS| Polarisation energy                  [Hartree]          3.79885549549364
  SCCS|                                      [kcal/mol]                 2383.818
  SCCS| Cavitation energy                    [Hartree]          0.00684469649279
  SCCS|                                      [kcal/mol]                    4.295
  SCCS| Dispersion free energy               [Hartree]         -0.10883945302672
  SCCS|                                      [kcal/mol]                  -68.298
  SCCS| Repulsion free energy                [Hartree]          0.00185682595686
  SCCS|                                      [kcal/mol]                    1.165
  SCCS| Solvation free energy                [Hartree]          3.69871756491657
  SCCS|                                      [kcal/mol]                 2320.980
    50 Broy./Diag. 0.40E+00    1.3     2.50817504      -626.3145755839  2.82E+00
  SCCS| Iteration cycle converged in 27 steps
  SCCS|
  SCCS| Polarisation charge                                      -0.359617015804
  SCCS|
  SCCS| Hartree energy of solute and solvent [Hartree]        647.55060260079904
  SCCS| Hartree energy of the solute only    [Hartree]        643.75260908756206
  SCCS| Polarisation energy                  [Hartree]          3.79799351323701
  SCCS|                                      [kcal/mol]                 2383.277
  SCCS| Cavitation energy                    [Hartree]          0.00674365630786
  SCCS|                                      [kcal/mol]                    4.232
  SCCS| Dispersion free energy               [Hartree]         -0.10886022200887
  SCCS|                                      [kcal/mol]                  -68.311
  SCCS| Repulsion free energy                [Hartree]          0.00182941582432
  SCCS|                                      [kcal/mol]                    1.148
  SCCS| Solvation free energy                [Hartree]          3.69770636336033
  SCCS|                                      [kcal/mol]                 2320.346
    51 Broy./Diag. 0.40E+00    1.2     0.06133714      -625.0790619330  1.24E+00
  SCCS| Iteration cycle converged in 26 steps
  SCCS|
  SCCS| Polarisation charge                                      -0.358704173287
  SCCS|
  SCCS| Hartree energy of solute and solvent [Hartree]        647.63416244822997
  SCCS| Hartree energy of the solute only    [Hartree]        643.83311206193662
  SCCS| Polarisation energy                  [Hartree]          3.80105038629338
  SCCS|                                      [kcal/mol]                 2385.195
  SCCS| Cavitation energy                    [Hartree]          0.00681181184347
  SCCS|                                      [kcal/mol]                    4.274
  SCCS| Dispersion free energy               [Hartree]         -0.10885279015403
  SCCS|                                      [kcal/mol]                  -68.306
  SCCS| Repulsion free energy                [Hartree]          0.00184790502508
  SCCS|                                      [kcal/mol]                    1.160
  SCCS| Solvation free energy                [Hartree]          3.70085731300790
  SCCS|                                      [kcal/mol]                 2322.323
    52 Broy./Diag. 0.40E+00    1.1     0.15924156      -625.0029000012  7.62E-02
  SCCS| Iteration cycle converged in 36 steps
  SCCS|
  SCCS| Polarisation charge                                      -0.346662800922
  SCCS|
  SCCS| Hartree energy of solute and solvent [Hartree]        647.52701873645401
  SCCS| Hartree energy of the solute only    [Hartree]        643.87197488066920
  SCCS| Polarisation energy                  [Hartree]          3.65504385578484
  SCCS|                                      [kcal/mol]                 2293.575
  SCCS| Cavitation energy                    [Hartree]          0.00682476047623
  SCCS|                                      [kcal/mol]                    4.283
  SCCS| Dispersion free energy               [Hartree]         -0.10885091511854
  SCCS|                                      [kcal/mol]                  -68.305
  SCCS| Repulsion free energy                [Hartree]          0.00185141772392
  SCCS|                                      [kcal/mol]                    1.162
  SCCS| Solvation free energy                [Hartree]          3.55486911886645
  SCCS|                                      [kcal/mol]                 2230.714
    53 Broy./Diag. 0.40E+00    1.3     0.31402918      -624.9993066915  3.59E-03
  SCCS| Iteration cycle converged in 36 steps
  SCCS|
  SCCS| Polarisation charge                                      -0.335280470902
  SCCS|
  SCCS| Hartree energy of solute and solvent [Hartree]        647.54875665748727
  SCCS| Hartree energy of the solute only    [Hartree]        644.14052545302002
  SCCS| Polarisation energy                  [Hartree]          3.40823120446728
  SCCS|                                      [kcal/mol]                 2138.697
  SCCS| Cavitation energy                    [Hartree]          0.00619830195164
  SCCS|                                      [kcal/mol]                    3.889
  SCCS| Dispersion free energy               [Hartree]         -0.10899875948346
  SCCS|                                      [kcal/mol]                  -68.398
  SCCS| Repulsion free energy                [Hartree]          0.00168147235811
  SCCS|                                      [kcal/mol]                    1.055
  SCCS| Solvation free energy                [Hartree]          3.30711221929357
  SCCS|                                      [kcal/mol]                 2075.244
    54 Broy./Diag. 0.40E+00    1.6     2.21980437      -625.1434268930 -1.44E-01
  SCCS| Iteration cycle converged in 38 steps
  SCCS|
  SCCS| Polarisation charge                                      -0.323917389399
  SCCS|
  SCCS| Hartree energy of solute and solvent [Hartree]        647.77435346274660
  SCCS| Hartree energy of the solute only    [Hartree]        644.54989485831243
  SCCS| Polarisation energy                  [Hartree]          3.22445860443422
  SCCS|                                      [kcal/mol]                 2023.378
  SCCS| Cavitation energy                    [Hartree]          0.00569469953258
  SCCS|                                      [kcal/mol]                    3.573
  SCCS| Dispersion free energy               [Hartree]         -0.10908898184184
  SCCS|                                      [kcal/mol]                  -68.454
  SCCS| Repulsion free energy                [Hartree]          0.00154485533723
  SCCS|                                      [kcal/mol]                    0.969
  SCCS| Solvation free energy                [Hartree]          3.12260917746219
  SCCS|                                      [kcal/mol]                 1959.467
    55 Broy./Diag. 0.40E+00    1.3     2.48701424      -624.9272731049  2.16E-01
  SCCS| Iteration cycle converged in 39 steps
  SCCS|
  SCCS| Polarisation charge                                      -0.370126132141
  SCCS|
  SCCS| Hartree energy of solute and solvent [Hartree]        648.01895131593301
  SCCS| Hartree energy of the solute only    [Hartree]        644.20353921838387
  SCCS| Polarisation energy                  [Hartree]          3.81541209754911
  SCCS|                                      [kcal/mol]                 2394.207
  SCCS| Cavitation energy                    [Hartree]          0.00610355341245
  SCCS|                                      [kcal/mol]                    3.830
  SCCS| Dispersion free energy               [Hartree]         -0.10901031166955
  SCCS|                                      [kcal/mol]                  -68.405
  SCCS| Repulsion free energy                [Hartree]          0.00165576902018
  SCCS|                                      [kcal/mol]                    1.039
  SCCS| Solvation free energy                [Hartree]          3.71416110831220
  SCCS|                                      [kcal/mol]                 2330.671
    56 Broy./Diag. 0.40E+00    1.5     2.38791129      -624.5683648692  3.59E-01
  SCCS| Iteration cycle converged in 30 steps
  SCCS|
  SCCS| Polarisation charge                                      -0.369626881601
  SCCS|
  SCCS| Hartree energy of solute and solvent [Hartree]        647.91999430061901
  SCCS| Hartree energy of the solute only    [Hartree]        644.10253317575348
  SCCS| Polarisation energy                  [Hartree]          3.81746112486544
  SCCS|                                      [kcal/mol]                 2395.493
  SCCS| Cavitation energy                    [Hartree]          0.00619841562559
  SCCS|                                      [kcal/mol]                    3.890
  SCCS| Dispersion free energy               [Hartree]         -0.10898863074913
  SCCS|                                      [kcal/mol]                  -68.391
  SCCS| Repulsion free energy                [Hartree]          0.00168150319552
  SCCS|                                      [kcal/mol]                    1.055
  SCCS| Solvation free energy                [Hartree]          3.71635241293741
  SCCS|                                      [kcal/mol]                 2332.046
    57 Broy./Diag. 0.40E+00    1.2     1.34131711      -624.0953555478  4.73E-01
  SCCS| Iteration cycle converged in 41 steps
  SCCS|
  SCCS| Polarisation charge                                      -0.359779068602
  SCCS|
  SCCS| Hartree energy of solute and solvent [Hartree]        647.62907522604166
  SCCS| Hartree energy of the solute only    [Hartree]        643.81876082155327
  SCCS| Polarisation energy                  [Hartree]          3.81031440448833
  SCCS|                                      [kcal/mol]                 2391.008
  SCCS| Cavitation energy                    [Hartree]          0.00639081652871
  SCCS|                                      [kcal/mol]                    4.010
  SCCS| Dispersion free energy               [Hartree]         -0.10881486960199
  SCCS|                                      [kcal/mol]                  -68.282
  SCCS| Repulsion free energy                [Hartree]          0.00173369761954
  SCCS|                                      [kcal/mol]                    1.088
  SCCS| Solvation free energy                [Hartree]          3.70962404903460
  SCCS|                                      [kcal/mol]                 2327.824
    58 Broy./Diag. 0.40E+00    1.4     2.52708022      -624.5854984729 -4.90E-01
  SCCS| Iteration cycle converged in 46 steps
  SCCS|
  SCCS| Polarisation charge                                      -0.356721003552
  SCCS|
  SCCS| Hartree energy of solute and solvent [Hartree]        646.20083214071008
  SCCS| Hartree energy of the solute only    [Hartree]        642.45475557641339
  SCCS| Polarisation energy                  [Hartree]          3.74607656429677
  SCCS|                                      [kcal/mol]                 2350.699
  SCCS| Cavitation energy                    [Hartree]          0.00646934022739
  SCCS|                                      [kcal/mol]                    4.060
  SCCS| Dispersion free energy               [Hartree]         -0.10871448987976
  SCCS|                                      [kcal/mol]                  -68.219
  SCCS| Repulsion free energy                [Hartree]          0.00175499949057
  SCCS|                                      [kcal/mol]                    1.101
  SCCS| Solvation free energy                [Hartree]          3.64558641413497
  SCCS|                                      [kcal/mol]                 2287.640
    59 Broy./Diag. 0.40E+00    1.5     1.98358099      -626.7316397685 -2.15E+00
  SCCS| Iteration cycle converged in 40 steps
  SCCS|
  SCCS| Polarisation charge                                      -0.333704527382
  SCCS|
  SCCS| Hartree energy of solute and solvent [Hartree]        645.39734378080004
  SCCS| Hartree energy of the solute only    [Hartree]        642.08216777972518
  SCCS| Polarisation energy                  [Hartree]          3.31517600107486
  SCCS|                                      [kcal/mol]                 2080.304
  SCCS| Cavitation energy                    [Hartree]          0.00668312148968
  SCCS|                                      [kcal/mol]                    4.194
  SCCS| Dispersion free energy               [Hartree]         -0.10876838835140
  SCCS|                                      [kcal/mol]                  -68.253
  SCCS| Repulsion free energy                [Hartree]          0.00181299396810
  SCCS|                                      [kcal/mol]                    1.138
  SCCS| Solvation free energy                [Hartree]          3.21490372818124
  SCCS|                                      [kcal/mol]                 2017.383
    60 Broy./Diag. 0.40E+00    1.3     0.72272901      -629.5792975872 -2.85E+00
  SCCS| Iteration cycle converged in 36 steps
  SCCS|
  SCCS| Polarisation charge                                      -0.249121082009
  SCCS|
  SCCS| Hartree energy of solute and solvent [Hartree]        644.55932917814539
  SCCS| Hartree energy of the solute only    [Hartree]        642.20894204145247
  SCCS| Polarisation energy                  [Hartree]          2.35038713669298
  SCCS|                                      [kcal/mol]                 1474.890
  SCCS| Cavitation energy                    [Hartree]          0.00716759908564
  SCCS|                                      [kcal/mol]                    4.498
  SCCS| Dispersion free energy               [Hartree]         -0.10875338430762
  SCCS|                                      [kcal/mol]                  -68.244
  SCCS| Repulsion free energy                [Hartree]          0.00194442281620
  SCCS|                                      [kcal/mol]                    1.220
  SCCS| Solvation free energy                [Hartree]          2.25074577428721
  SCCS|                                      [kcal/mol]                 1412.364
    61 Broy./Diag. 0.40E+00    1.2     0.70598127      -631.6946621671 -2.12E+00
  SCCS| Iteration cycle converged in 35 steps
  SCCS|
  SCCS| Polarisation charge                                      -0.192277030863
  SCCS|
  SCCS| Hartree energy of solute and solvent [Hartree]        644.21552598660628
  SCCS| Hartree energy of the solute only    [Hartree]        642.59065469312191
  SCCS| Polarisation energy                  [Hartree]          1.62487129348436
  SCCS|                                      [kcal/mol]                 1019.622
  SCCS| Cavitation energy                    [Hartree]          0.00706296478764
  SCCS|                                      [kcal/mol]                    4.432
  SCCS| Dispersion free energy               [Hartree]         -0.10882797045329
  SCCS|                                      [kcal/mol]                  -68.291
  SCCS| Repulsion free energy                [Hartree]          0.00191603767441
  SCCS|                                      [kcal/mol]                    1.202
  SCCS| Solvation free energy                [Hartree]          1.52502232549312
  SCCS|                                      [kcal/mol]                  956.966
    62 Broy./Diag. 0.40E+00    1.2     1.13632091      -633.5787376656 -1.88E+00
  SCCS| Iteration cycle converged in 28 steps
  SCCS|
  SCCS| Polarisation charge                                      -0.189877447499
  SCCS|
  SCCS| Hartree energy of solute and solvent [Hartree]        644.28150068572540
  SCCS| Hartree energy of the solute only    [Hartree]        642.68753396047487
  SCCS| Polarisation energy                  [Hartree]          1.59396672525057
  SCCS|                                      [kcal/mol]                 1000.229
  SCCS| Cavitation energy                    [Hartree]          0.00698696756244
  SCCS|                                      [kcal/mol]                    4.384
  SCCS| Dispersion free energy               [Hartree]         -0.10884926079687
  SCCS|                                      [kcal/mol]                  -68.304
  SCCS| Repulsion free energy                [Hartree]          0.00189542118388
  SCCS|                                      [kcal/mol]                    1.189
  SCCS| Solvation free energy                [Hartree]          1.49399985320002
  SCCS|                                      [kcal/mol]                  937.499
    63 Broy./Diag. 0.40E+00    1.1     0.19724411      -634.2204537762 -6.42E-01
  SCCS| Iteration cycle converged in 38 steps
  SCCS|
  SCCS| Polarisation charge                                      -0.265361540671
  SCCS|
  SCCS| Hartree energy of solute and solvent [Hartree]        645.48562758836147
  SCCS| Hartree energy of the solute only    [Hartree]        642.94467497983942
  SCCS| Polarisation energy                  [Hartree]          2.54095260852194
  SCCS|                                      [kcal/mol]                 1594.472
  SCCS| Cavitation energy                    [Hartree]          0.00683297669444
  SCCS|                                      [kcal/mol]                    4.288
  SCCS| Dispersion free energy               [Hartree]         -0.10887529653052
  SCCS|                                      [kcal/mol]                  -68.320
  SCCS| Repulsion free energy                [Hartree]          0.00185364661562
  SCCS|                                      [kcal/mol]                    1.163
  SCCS| Solvation free energy                [Hartree]          2.44076393530148
  SCCS|                                      [kcal/mol]                 1531.602
    64 Broy./Diag. 0.40E+00    1.2     1.12080278      -632.8671218658  1.35E+00
  SCCS| Iteration cycle converged in 33 steps
  SCCS|
  SCCS| Polarisation charge                                      -0.270141440987
  SCCS|
  SCCS| Hartree energy of solute and solvent [Hartree]        644.70598600543701
  SCCS| Hartree energy of the solute only    [Hartree]        642.09081041071511
  SCCS| Polarisation energy                  [Hartree]          2.61517559472189
  SCCS|                                      [kcal/mol]                 1641.047
  SCCS| Cavitation energy                    [Hartree]          0.00717786043662
  SCCS|                                      [kcal/mol]                    4.504
  SCCS| Dispersion free energy               [Hartree]         -0.10871904431656
  SCCS|                                      [kcal/mol]                  -68.222
  SCCS| Repulsion free energy                [Hartree]          0.00194720651054
  SCCS|                                      [kcal/mol]                    1.222
  SCCS| Solvation free energy                [Hartree]          2.51558161735249
  SCCS|                                      [kcal/mol]                 1578.551
    65 Broy./Diag. 0.40E+00    1.2     1.73888562      -631.6393725253  1.23E+00
  SCCS| Iteration cycle converged in 35 steps
  SCCS|
  SCCS| Polarisation charge                                      -0.194481150313
  SCCS|
  SCCS| Hartree energy of solute and solvent [Hartree]        643.84151990199177
  SCCS| Hartree energy of the solute only    [Hartree]        642.19452180556129
  SCCS| Polarisation energy                  [Hartree]          1.64699809643043
  SCCS|                                      [kcal/mol]                 1033.507
  SCCS| Cavitation energy                    [Hartree]          0.00720728821887
  SCCS|                                      [kcal/mol]                    4.523
  SCCS| Dispersion free energy               [Hartree]         -0.10875604817098
  SCCS|                                      [kcal/mol]                  -68.245
  SCCS| Repulsion free energy                [Hartree]          0.00195518966509
  SCCS|                                      [kcal/mol]                    1.227
  SCCS| Solvation free energy                [Hartree]          1.54740452614341
  SCCS|                                      [kcal/mol]                  971.011
    66 Broy./Diag. 0.40E+00    1.3     1.01368586      -633.7271987490 -2.09E+00
  SCCS| Iteration cycle converged in 40 steps
  SCCS|
  SCCS| Polarisation charge                                      -0.329686232613
  SCCS|
  SCCS| Hartree energy of solute and solvent [Hartree]        646.07817093809660
  SCCS| Hartree energy of the solute only    [Hartree]        642.69277846298519
  SCCS| Polarisation energy                  [Hartree]          3.38539247511147
  SCCS|                                      [kcal/mol]                 2124.366
  SCCS| Cavitation energy                    [Hartree]          0.00711254996108
  SCCS|                                      [kcal/mol]                    4.463
  SCCS| Dispersion free energy               [Hartree]         -0.10878778338836
  SCCS|                                      [kcal/mol]                  -68.265
  SCCS| Repulsion free energy                [Hartree]          0.00192948911630
  SCCS|                                      [kcal/mol]                    1.211
  SCCS| Solvation free energy                [Hartree]          3.28564673080049
  SCCS|                                      [kcal/mol]                 2061.774
    67 Broy./Diag. 0.40E+00    1.3     2.75405654      -633.0681629553  6.59E-01
  SCCS| Iteration cycle converged in 35 steps
  SCCS|
  SCCS| Polarisation charge                                      -0.284187470641
  SCCS|
  SCCS| Hartree energy of solute and solvent [Hartree]        645.83205594570222
  SCCS| Hartree energy of the solute only    [Hartree]        642.98170103507709
  SCCS| Polarisation energy                  [Hartree]          2.85035491062511
  SCCS|                                      [kcal/mol]                 1788.625
  SCCS| Cavitation energy                    [Hartree]          0.00739893882475
  SCCS|                                      [kcal/mol]                    4.643
  SCCS| Dispersion free energy               [Hartree]         -0.10877031009472
  SCCS|                                      [kcal/mol]                  -68.254
  SCCS| Repulsion free energy                [Hartree]          0.00200718054883
  SCCS|                                      [kcal/mol]                    1.260
  SCCS| Solvation free energy                [Hartree]          2.75099071990398
  SCCS|                                      [kcal/mol]                 1726.273
    68 Broy./Diag. 0.40E+00    1.2     1.49937605      -629.2170330036  3.85E+00
  SCCS| Iteration cycle converged in 37 steps
  SCCS|
  SCCS| Polarisation charge                                      -0.319825209304
  SCCS|
  SCCS| Hartree energy of solute and solvent [Hartree]        646.01416865770898
  SCCS| Hartree energy of the solute only    [Hartree]        642.68098838642004
  SCCS| Polarisation energy                  [Hartree]          3.33318027128899
  SCCS|                                      [kcal/mol]                 2091.602
  SCCS| Cavitation energy                    [Hartree]          0.00768170648743
[...]
                               162                  171              -0.010963
                               160                  172               0.010867
                               150                  174               0.010735
                               152                  177              -0.010660
                               135                  167               0.010655
                               149                  177               0.010296
 -------------------------------------------------------------------------------

 ENERGY| Total FORCE_EVAL ( QS ) energy [a.u.]:             -630.283094565542683

 -------------------------------------------------------------------------------
 -                                                                             -
 -                                DBCSR STATISTICS                             -
 -                                                                             -
 -------------------------------------------------------------------------------
 COUNTER                                    TOTAL       BLAS       SMM       ACC
 flops     6 x    16 x     6              2073600       0.0%    100.0%      0.0%
 flops     6 x     6 x     2              5423760       0.0%    100.0%      0.0%
 flops     6 x    16 x    17             12533760       0.0%    100.0%      0.0%
 flops    17 x    16 x     6             12533760       0.0%    100.0%      0.0%
 flops     6 x    17 x     2             31726080       0.0%    100.0%      0.0%
 flops    17 x     6 x     2             31726080       0.0%    100.0%      0.0%
 flops    17 x    16 x    17             75759616       0.0%    100.0%      0.0%
 flops    17 x    17 x     2            194762880       0.0%    100.0%      0.0%
 flops     6 x     6 x     4            321408000       0.0%    100.0%      0.0%
 flops     6 x     4 x     6           1193356800       0.0%    100.0%      0.0%
 flops     6 x    17 x     4           1880064000       0.0%    100.0%      0.0%
 flops    17 x     6 x     4           1880064000       0.0%    100.0%      0.0%
 flops     6 x     4 x    17           7213178880       0.0%    100.0%      0.0%
 flops    17 x     4 x     6           7213178880       0.0%    100.0%      0.0%
 flops    17 x    17 x     4          11541504000       0.0%    100.0%      0.0%
 flops     6 x     6 x    32          13377000960       0.0%    100.0%      0.0%
 flops    17 x     4 x    17          43599659008       0.0%    100.0%      0.0%
 flops     6 x    32 x     6          47887718400       0.0%    100.0%      0.0%
 flops     6 x    17 x    32          78248263680       0.0%    100.0%      0.0%
 flops    17 x     6 x    32          78248263680       0.0%    100.0%      0.0%
 flops     6 x    32 x    17         289454653440       0.0%    100.0%      0.0%
 flops    17 x    32 x     6         289454653440       0.0%    100.0%      0.0%
 flops    17 x    17 x    32         480357396480       0.0%    100.0%      0.0%
 flops    17 x    32 x    17        1749592571904       0.0%    100.0%      0.0%
 flops inhomo. stacks                           0       0.0%      0.0%      0.0%
 flops total                         3.101829E+12       0.0%    100.0%      0.0%
 flops max/rank                     95.372918E+09       0.0%    100.0%      0.0%
 matmuls inhomo. stacks                         0       0.0%      0.0%      0.0%
 matmuls total                          311584855       0.0%    100.0%      0.0%
 number of processed stacks              45303756       0.0%    100.0%      0.0%
 average stack size                                     0.0       6.9       0.0
 marketing flops                     3.744106E+12
 -------------------------------------------------------------------------------
 # multiplications                           7088
 max memory usage/rank             791.887872E+06
 # max total images/rank                        5
 # max 3D layers                                1
 # MPI messages exchanged                33809760
 MPI messages size (bytes):
  total size                       946.861965E+09
  min size                           0.000000E+00
  max size                         124.032000E+03
  average size                      28.005580E+03
 MPI breakdown and total messages size (bytes):
             size <=      128            15671367                        0
       128 < size <=     8192             1545599               6234448832
      8192 < size <=    32768             3933820              54310840320
     32768 < size <=   131072            12658974             886373881088
    131072 < size <=  4194304                   0                        0
   4194304 < size <= 16777216                   0                        0
  16777216 < size                               0                        0
 -------------------------------------------------------------------------------

 *** WARNING in dbcsr_mm.F:291 :: Using a non-square number of MPI ranks ***
 *** might lead to poor performance. Used ranks: 90 Suggested: 81 169    ***

 -------------------------------------------------------------------------------
 -                                                                             -
 -                      DBCSR MESSAGE PASSING PERFORMANCE                      -
 -                                                                             -
 -------------------------------------------------------------------------------
 ROUTINE             CALLS      AVE VOLUME [Bytes]
 MP_Bcast               25                     12.
 MP_Allreduce        26453                      8.
 MP_Alltoall        129053                  35198.
 MP_ISend           817246                  14770.
 MP_IRecv           812994                  14343.
 -------------------------------------------------------------------------------

 -------------------------------------------------------------------------------
 -                                                                             -
 -                                DBM STATISTICS                               -
 -                                                                             -
 -------------------------------------------------------------------------------
    M  x    N  x    K                                          COUNT     PERCENT
 -------------------------------------------------------------------------------

 -------------------------------------------------------------------------------
 -                                                                             -
 -                                GRID STATISTICS                              -
 -                                                                             -
 -------------------------------------------------------------------------------
 LP    KERNEL             BACKEND                              COUNT     PERCENT
 2     collocate general  CPU                              124404126      26.02%
 2     integrate general  CPU                              124209920      25.98%
 1     collocate general  CPU                               70344040      14.71%
 1     integrate general  CPU                               70233600      14.69%
 3     collocate general  CPU                               31273108       6.54%
 3     integrate general  CPU                               31224320       6.53%
 0     collocate general  CPU                               11196774       2.34%
 0     integrate general  CPU                               11170560       2.34%
 4     collocate general  CPU                                2025560       0.42%
 4     integrate general  CPU                                2022400       0.42%
 -------------------------------------------------------------------------------

 MEMORY| Estimated peak process memory [MiB]                                 756

 -------------------------------------------------------------------------------
 -                                                                             -
 -                         MESSAGE PASSING PERFORMANCE                         -
 -                                                                             -
 -------------------------------------------------------------------------------

 ROUTINE             CALLS      AVE VOLUME [Bytes]
 MP_Group                4
 MP_Bcast              519                1691663.
 MP_Allreduce       551275                     38.
 MP_Sync             15546
 MP_Alltoall         57367               48106409.
 MP_SendRecv        343184                  16917.
 MP_ISendRecv       341760                  16933.
 MP_Wait            464928
 MP_comm_split          87
 MP_ISend           195369                  57726.
 MP_IRecv           214486                  52591.
 MP_Write_All            2                 295776.
 -------------------------------------------------------------------------------


 -------------------------------------------------------------------------------
 -                                                                             -
 -                           R E F E R E N C E S                               -
 -                                                                             -
 -------------------------------------------------------------------------------
 
 CP2K version 2023.2, the CP2K developers group (2023).
 CP2K is freely available from https://www.cp2k.org/ .

 Kuehne,Thomas D.; Iannuzzi,Marcella; Del Ben,Mauro;
 Rybkin,Vladimir V.; Seewald,Patrick; Stein,Frederick; Laino,Teodoro;
 Khaliullin,Rustam Z.; Schuett,Ole; Schiffmann,Florian; Golze,Dorothea;
 Wilhelm,Jan; Chulkov,Sergey; Bani-Hashemian,Mohammad Hossein;
 Weber,Valery; Borstnik,Urban; Taillefumier,Mathieu;
 Jakobovits,Alice Shoshana; Lazzaro,Alfio; Pabst,Hans; Mueller,Tiziano;
 Schade,Robert; Guidon,Manuel; Andermatt,Samuel; Holmberg,Nico;
 Schenter,Gregory K.; Hehn,Anna; Bussy,Augustin; Belleflamme,Fabian;
 Tabacchi,Gloria; Gloess,Andreas; Lass,Michael; Bethune,Iain;
 Mundy,Christopher J.; Plessl,Christian; Watkins,Matt;
 VandeVondele,Joost; Krack,Matthias; Hutter,Juerg. 
 The Journal of Chemical Physics, 152 (19), (2020). 
 CP2K: An electronic structure and molecular dynamics software package -
 Quickstep: Efficient and accurate electronic structure calculations.
 https://doi.org/10.1063/5.0007045

 Yin, Wen-Jin; Krack, Matthias; Li, Xibo; Chen, Li-Zhen; Liu, Li-Min. 
 Prog. Nat. Sci., 27 (2), 283-288 (2017). 
 Periodic continuum solvation model integrated with first-principles
 calculations for solid surfaces.
 https://doi.org/10.1016/j.pnsc.2017.03.003

 Goerigk, Lars; Hansen, Andreas; Bauer, Christoph; Ehrlich, Stephan;
 Najibi, Asim; Grimme, Stefan. , 19 (48), (2017). 
 A look at the density functional theory zoo with the advanced GMTKN55 database
 for general main group thermochemistry, kinetics and noncovalent interactions.
 https://doi.org/10.1039/C7CP04913G

 Schuett, Ole; Messmer, Peter; Hutter, Juerg; VandeVondele, Joost. 
 Electronic Structure Calculations on Graphics Processing Units, John
 Wiley & Sons, Ltd, 173-190 (2016). 
 GPU-Accelerated Sparse Matrix-Matrix Multiplication for
 Linear Scaling Density Functional Theory.
 https://doi.org/10.1002/9781118670712.ch8

 Heinecke, A; Henry, G; Hutchinson, M; Pabst, H. 
 Proceedings of Intl. Supercomputing Conference, 981-991 (2016). 
 LIBXSMM: Accelerating Small Matrix Multiplications
 by Runtime Code Generation.
 https://doi.org/10.1109/SC.2016.83

 Borstnik, U; VandeVondele, J; Weber, V; Hutter, J. 
 PARALLEL COMPUTING, 40 (5-6), 47-58 (2014). 
 Sparse matrix multiplication: The distributed block-compressed sparse
 row library.
 https://doi.org/10.1016/j.parco.2014.03.012

 Hutter, J; Iannuzzi, M; Schiffmann, F; VandeVondele, J. 
 WIREs Comput Mol Sci., 4 (1), 15-25 (2014). 
 CP2K: atomistic simulations of condensed matter systems.
 https://doi.org/10.1002/wcms.1159

 Grimme, S; Ehrlich, S; Goerigk, L. 
 JOURNAL OF COMPUTATIONAL CHEMISTRY, 32, 1456 (2011). 
 Effect of the damping function in dispersion corrected density functional theory.
 https://doi.org/10.1002/jcc.21759

 Grimme, S; Antony, J; Ehrlich, S; Krieg, H. 
 JOURNAL OF CHEMICAL PHYSICS, 132 (15), 154104 (2010). 
 A consistent and accurate ab initio parametrization of density
 functional dispersion correction (DFT-D) for the 94 elements H-Pu.
 https://doi.org/10.1063/1.3382344

 Krack, M. 
 THEORETICAL CHEMISTRY ACCOUNTS, 114 (1-3), 145-152 (2005). 
 Pseudopotentials for H to Kr optimized for gradient-corrected
 exchange-correlation functionals.
 https://doi.org/10.1007/s00214-005-0655-y

 VandeVondele, J; Krack, M; Mohamed, F; Parrinello, M; Chassaing, T;
 Hutter, J. COMPUTER PHYSICS COMMUNICATIONS, 167 (2), 103-128 (2005). 
 QUICKSTEP: Fast and accurate density functional calculations using a
 mixed Gaussian and plane waves approach.
 https://doi.org/10.1016/j.cpc.2004.12.014

 Frigo, M; Johnson, SG. 
 PROCEEDINGS OF THE IEEE, 93 (2), 216-231 (2005). 
 The design and implementation of FFTW3.
 https://doi.org/10.1109/JPROC.2004.840301

 Iannuzzi, M; Chassaing, T; Wallman, T; Hutter, J. 
 CHIMIA, 59 (7-8), 499-503 (2005). 
 Ground and excited state density functional calculations with the
 Gaussian and augmented-plane-wave method.
 https://doi.org/10.2533/000942905777676164

 Fattebert, JL; Gygi, F. J. Comput. Chem., 23 (6), (2002). 
 Density functional theory for efficient ab initio molecular dynamics
 simulations in solution.
 https://doi.org/10.1002/jcc.10069

 Hartwigsen, C; Goedecker, S; Hutter, J. 
 PHYSICAL REVIEW B, 58 (7), 3641-3662 (1998). 
 Relativistic separable dual-space Gaussian pseudopotentials from H to Rn.
 https://doi.org/10.1103/PhysRevB.58.3641

 Lippert, G; Hutter, J; Parrinello, M. 
 MOLECULAR PHYSICS, 92 (3), 477-487 (1997). 
 A hybrid Gaussian and plane wave density functional scheme.
 https://doi.org/10.1080/002689797170220

 Perdew, JP; Burke, K; Ernzerhof, M. 
 PHYSICAL REVIEW LETTERS, 77 (18), 3865-3868 (1996). 
 Generalized gradient approximation made simple.
 https://doi.org/10.1103/PhysRevLett.77.3865

 Goedecker, S; Teter, M; Hutter, J. 
 PHYSICAL REVIEW B, 54 (3), 1703-1710 (1996). 
 Separable dual-space Gaussian pseudopotentials.
 https://doi.org/10.1103/PhysRevB.54.1703


 -------------------------------------------------------------------------------
 -                                                                             -
 -                                T I M I N G                                  -
 -                                                                             -
 -------------------------------------------------------------------------------
 SUBROUTINE                       CALLS  ASD         SELF TIME        TOTAL TIME
                                MAXIMUM       AVERAGE  MAXIMUM  AVERAGE  MAXIMUM
 CP2K                                 1  1.0    0.026    0.043  634.710  634.711
 qs_energies                          1  2.0    0.000    0.006  634.224  634.230
 qs_energies_properties               1  3.0    0.000    0.000  546.454  546.460
 tddfpt                               1  4.0    0.000    0.000  546.454  546.459
 tddfpt_energies                      1  5.0    0.000    0.002  546.157  546.163
 tddfpt_davidson_solver               2  6.0    0.014    0.016  540.450  540.451
 tddfpt_compute_Aop_evects            6  7.0    0.000    0.000  489.408  489.428
 fhxc_kernel                          6  8.0    0.035    0.039  480.687  480.706
 integrate_v_rspace                1280  9.0    0.034    0.037  231.378  231.591
 qs_rho_update_rho_low             1282  8.7    0.005    0.006  226.427  226.779
 calculate_rho_elec                1282  9.7    0.120    0.130  226.422  226.773
 grid_integrate_task_list          1280 10.0  191.347  196.134  191.347  196.134
 grid_collocate_task_list          1282 10.7  183.855  188.060  183.855  188.060
 scf_env_do_scf                       1  3.0    0.000    0.000   80.874   80.879
 scf_env_do_scf_inner_loop           80  4.0    0.002    0.020   80.874   80.879
 pw_transfer                      33801 11.1    1.447    1.580   74.993   75.616
 fft_wrap_pw1pw2                  31241 12.1    0.170    0.216   73.407   74.105
 fft_wrap_pw1pw2_200              23549 13.0    6.485    8.276   65.017   65.998
 fft3d_pb                         23549 14.0   18.890   20.871   53.790   56.602
 rs_pw_transfer                   10541 11.4    0.115    0.137   51.304   55.215
 qs_ks_update_qs_env                 80  5.0    0.001    0.001   48.075   48.104
 rebuild_ks_matrix                   80  6.0    0.000    0.000   48.065   48.093
 qs_ks_build_kohn_sham_matrix        80  7.0    0.009    0.010   48.065   48.093
 density_rs2pw                     1282 10.7    0.045    0.057   40.510   44.308
 mp_alltoall_z22v                 54790 16.0   30.321   36.797   30.321   36.797
 dbcsr_multiply_generic            7088 10.3    0.250    0.291   31.781   34.463
 cp_dbcsr_sm_fm_multiply           4607  8.5    0.079    0.086   32.857   33.089
 sccs                                80  8.0    0.920    1.140   31.392   31.578
 potential_pw2rs                   1280 10.0    0.050    0.060   30.868   31.093
 tddfpt_apply_xc_analytic          1200  9.0    0.205    0.277   29.009   29.198
 pw_poisson_solve                  3056  9.4    0.953    1.132   28.373   28.650
 mp_waitany                      103091 13.3   22.416   27.826   22.416   27.826
 cp_dbcsr_sm_fm_multiply_core      4607  9.5    0.008    0.010   23.625   26.137
 xc_pw_derive                      7683 11.0    0.034    0.038   25.214   25.574
 multiply_cannon                   7088 11.3    0.618    0.742   21.734   24.994
 mp_waitall_1                   1082470 14.0   16.951   23.077   16.951   23.077
 multiply_cannon_loop              7088 12.3    1.112    1.371   18.758   21.818
 tddfpt_orthonormalize_psi1_psi       7  6.9    0.338    0.361   21.161   21.162
 rs_pw_transfer_RS2PW_200          1498 12.6    2.761    3.800   17.098   20.924
 parallel_gemm_fm                  4009  7.9    0.003    0.004   20.321   20.829
 parallel_gemm_fm_cosma            4009  8.9   20.318   20.826   20.318   20.826
 qs_scf_new_mos                      80  5.0    0.001    0.001   17.176   17.234
 multiply_cannon_metrocomm3      212640 13.3    0.220    0.257   10.675   16.849
 cube_transpose_3                 15225 14.5    2.480    3.265   12.041   16.642
 xc_calc_2nd_deriv_analytical      1200 10.0    0.855    0.982   16.231   16.349
 xc_pw_divergence                  1280 10.9    0.016    0.018   15.765   16.140
 eigensolver                         81  6.0    0.005    0.008   15.374   15.387
 mp_alltoall_d11v                 55815 11.8   10.640   14.819   10.640   14.819
 rs_pw_transfer_PW2RS_200          1351 12.0    3.505    4.399   14.365   14.813
 tddfpt_compute_residual_vects        4  7.0    0.010    0.011   13.658   14.267
 sum_up_and_integrate                80  8.0    0.015    0.016   13.969   13.997
 cp_fm_syevd                         87  7.1    0.000    0.001   13.549   13.600
 rs_gather_matrices                1280 10.0    0.144    0.200    9.126   13.535
 cp_fm_redistribute_end              87  8.1    6.767   13.428    6.773   13.432
 cp_fm_syevd_base                    87  8.1    6.645   13.347    6.645   13.347
 cube_transpose_1                 19065 14.6    1.619    1.928   11.387   13.071
 -------------------------------------------------------------------------------

 The number of warnings for this run is : 1
 
 -------------------------------------------------------------------------------
  **** **** ******  **  PROGRAM ENDED AT                 2024-02-29 07:52:13.130
 ***** ** ***  *** **   PROGRAM RAN ON                              755869f6db35
 **    ****   ******    PROGRAM RAN BY                                 <unknown>
 ***** **    ** ** **   PROGRAM PROCESS ID                                   538
  **** **  *******  **  PROGRAM STOPPED IN                                  /mnt
