      94
 i =       75, E =      -633.8913675131
  O         6.7995748226        5.7815334221        5.5410242227
  O         2.2028682464        8.4001620747       11.3240498264
  N         4.3176873974       10.3735815629        9.1022125687
  N         4.6849230171        3.8080731389        7.7628919877
  C         2.7850294735        4.7445578065        2.3629563126
  C         6.2175393278        9.4370588937       14.5021486188
  H         2.4341709146        5.6409059085        2.8757381721
  H         6.5683992057        8.5407211900       13.9893686405
  C         2.0070591299        4.2050911049        1.3417077333
  C         6.9955228813        9.9765329669       15.5233868754
  H         1.0900152086        4.7017154355        1.0329130875
  H         7.9125644009        9.4799023301       15.8321825495
  C         2.4387367285        3.0368929662        0.6923770928
  C         6.5638636196       11.1447429949       16.1727086685
  C         3.6245240826        2.3981312066        1.0697621693
  C         5.3780714580       11.7835027836       15.7953321927
  H         3.9345395998        1.4786823467        0.5732786134
  H         5.0680748323       12.7029551710       16.2918236675
  C         4.3963776583        2.9420640266        2.0928486781
  C         4.6062177203       11.2395699373       14.7722697455
  H         5.3109037672        2.4439651548        2.4140103371
  H         3.6916923537       11.7376814236       14.4511033105
  C         4.0017700862        4.1379002010        2.7302840254
  C         5.0008027361       10.0437565448       14.1348190916
  C         4.9013823749        4.6950838419        3.7246804801
  C         4.1011896181        9.4865029403       13.1404169843
  H         5.7535603636        4.0793004498        4.0242965977
  H         3.2489847560       10.1023484093       12.8408162676
  C         4.7720823418        5.9124850320        4.2971397414
  C         4.2304318782        8.2692177077       12.5679905296
  H         3.9382863039        6.5576933858        4.0339181716
  H         5.0642879163        7.6239525034       12.8311809579
  C         5.6935791792        6.3333487504        5.3580111630
  C         3.3091024973        7.8482329590       11.5071109941
  C         5.2362462296        7.3913222617        6.2883395369
  C         3.7662975668        6.7903143002       10.5767576367
  C         6.0483620896        7.6253803186        7.4151372730
  C         2.9542222197        6.5562429771        9.4499763610
  H         6.9368510310        7.0137012294        7.5280144498
  H         2.0657153431        7.1679143291        9.3370735237
  C         5.6951369483        8.5774243208        8.3512994836
  C         3.3074572272        5.6042033213        8.5137989195
  H         6.2996028268        8.7456278266        9.2443390093
  H         2.7029963374        5.4359968187        7.6207652619
  C         4.5338415158        9.3470335669        8.1714120418
  C         4.4687616863        4.8346115058        8.6937082426
  C         3.7008685215        9.1118891973        7.0595790182
  C         5.3017182549        5.0697575640        9.8055389494
  H         2.8234396950        9.7360377057        6.8882583528
  H         6.1791429123        4.4456133792        9.9768719414
  C         4.0482628820        8.1247704033        6.1343491461
  C         4.9543004117        6.0568826026       10.7307779332
  H         3.3820936877        7.9403120057        5.2939395645
  H         5.6204644263        6.2413294681       11.5711784282
  C         3.1179106921       10.6764739405        9.4603408334
  C         5.8847071563        3.5051608736        7.4047897564
  H         2.2188111549       10.1448329451        9.0973186265
  H         6.7838054177        4.0367718119        7.7678426532
  C         2.9030679742       11.7100514673       10.4645857589
  C         6.0995619325        2.4715731218        6.4005500109
  C         3.8751402566       12.7107220374       10.6605888107
  C         5.1274821327        1.4709120955        6.2045426076
  H         3.6115091436        2.6342151298        9.9997128517
  H         5.3911146520       11.5474083202        6.8654222202
  C         2.5731136448        3.5406582869       11.6669252388
  C         6.4294881951       10.6409888356        5.1981909072
  H         3.3053411625        4.3346565970       11.8094750122
  H         5.6972659815        9.8469868604        5.0556308833
  C         7.0835017156        3.4582968108       12.4867191821
  C         1.9190945967       10.7233479428        4.3783881740
  C         7.2417100569       12.5710876953       12.3101838014
  C         1.7608909574        1.6105539838        4.5549195579
  H         6.3839149374       12.5001558829       12.9770543021
  H         2.6186802206        1.6814921054        3.8880410228
  C         7.4023148098       11.6495371856       11.2762293853
  C         1.6003077896        2.5320910075        5.5888902976
  H         6.6609874456       10.8651073952       11.1191340724
  H         2.3416418750        3.3165132298        5.7459896192
  C         3.8974412612        6.5053563683       16.4260980486
  C         5.1051284482        7.6762781938        0.4390059836
  C         6.9026072021        4.4408537448       13.5984173592
  C         2.0999740949        9.7407973333        3.2666832040
  F         2.6608371285        7.0691494932       16.2429897259
  F         6.3417364048        7.1124929809        0.6221158606
  F         4.5457341797        6.6635288004       15.2251381476
  F         4.4568379706        7.5181116731        1.6399667131
  F         3.7352214061        5.1513391684       16.6241677473
  F         5.2673500750        9.0302998148        0.2409400147
  F         5.5801044472        4.5685223542       13.9040009502
  F         3.4224751789        9.6131209704        2.9610988433
  F         7.3659231188        5.7036301583       13.2770736069
  F         1.6366543797        8.4780193956        3.5880282977
  F         7.5653106971        4.0517173133       14.7479314611
  F         1.4372658792       10.1299289802        2.1171698829
