
     Program PWSCF v.7.2 starts on 23Feb2024 at  8:46:57 

     This program is part of the open-source Quantum ESPRESSO suite
     for quantum simulation of materials; please cite
         "P. Giannozzi et al., J. Phys.:Condens. Matter 21 395502 (2009);
         "P. Giannozzi et al., J. Phys.:Condens. Matter 29 465901 (2017);
         "P. Giannozzi et al., J. Chem. Phys. 152 154105 (2020);
          URL http://www.quantum-espresso.org", 
     in publications or presentations arising from this work. More details at
     http://www.quantum-espresso.org/quote

     Parallel version (MPI & OpenMP), running on       4 processor cores
     Number of MPI processes:                 4
     Threads/MPI process:                     1

     MPI processes distributed on     1 nodes
     4457 MiB available memory on the printing compute node when the environment starts

     Reading input from testbenzene.in

     Current dimensions of program PWSCF are:
     Max number of different atomic species (ntypx) = 10
     Max number of k-points (npk) =  40000
     Max angular momentum in pseudopotentials (lmaxx) =  4

     gamma-point specific algorithms are used

     R & G space division:  proc/nbgrp/npool/nimage =       4
     Subspace diagonalization in iterative solution of the eigenvalue problem:
     a serial algorithm will be used


     Parallelization info
     --------------------
     sticks:   dense  smooth     PW     G-vecs:    dense   smooth      PW
     Min        3261    3261    815               232435   232435   29030
     Max        3264    3264    818               232436   232436   29032
     Sum       13053   13053   3265               929743   929743  116125

     Using Slab Decomposition



     bravais-lattice index     =            6
     lattice parameter (alat)  =      32.0000  a.u.
     unit-cell volume          =   27197.4400 (a.u.)^3
     number of atoms/cell      =           12
     number of atomic types    =            2
     number of electrons       =        30.00
     number of Kohn-Sham states=           15
     kinetic-energy cutoff     =      40.0000  Ry
     charge density cutoff     =     160.0000  Ry
     scf convergence threshold =      1.0E-10
     mixing beta               =       0.7000
     number of iterations used =            8  plain     mixing
     Exchange-correlation= PBE
                           (   1   4   3   4   0   0   0)

     celldm(1)=  32.000000  celldm(2)=   0.000000  celldm(3)=   0.830000
     celldm(4)=   0.000000  celldm(5)=   0.000000  celldm(6)=   0.000000

     crystal axes: (cart. coord. in units of alat)
               a(1) = (   1.000000   0.000000   0.000000 )  
               a(2) = (   0.000000   1.000000   0.000000 )  
               a(3) = (   0.000000   0.000000   0.830000 )  

     reciprocal axes: (cart. coord. in units 2 pi/alat)
               b(1) = (  1.000000  0.000000  0.000000 )  
               b(2) = (  0.000000  1.000000  0.000000 )  
               b(3) = (  0.000000  0.000000  1.204819 )  


     PseudoPot. # 1 for C  read from file:
     /home/joyeechan1127/q-e-qe-7.2/pp/C.pbe-n-rrkjus_psl.1.0.0.UPF
     MD5 check sum: 1fdd950c42eb37d8afe3dd2f8d12311e
     Pseudo is Ultrasoft + core correction, Zval =  4.0
     Generated using &quot;atomic&quot; code by A. Dal Corso  v.6.3MaX
     Using radial grid of 1073 points,  4 beta functions with: 
                l(1) =   0
                l(2) =   0
                l(3) =   1
                l(4) =   1
     Q(r) pseudized with 0 coefficients 


     PseudoPot. # 2 for H  read from file:
     /home/joyeechan1127/q-e-qe-7.2/pp/H.pbe-rrkjus_psl.1.0.0.UPF
     MD5 check sum: 3f4114867bd07edc7f1424d066fc1888
     Pseudo is Ultrasoft, Zval =  1.0
     Generated using &quot;atomic&quot; code by A. Dal Corso  v.6.3MaX
     Using radial grid of  929 points,  2 beta functions with: 
                l(1) =   0
                l(2) =   0
     Q(r) pseudized with 0 coefficients 


     atomic species   valence    mass     pseudopotential
        C              4.00    12.01070     C ( 1.00)
        H              1.00     1.00784     H ( 1.00)

     No symmetry found



   Cartesian axes

     site n.     atom                  positions (alat units)
         1           C   tau(   1) = (   0.3327634   0.3733372   0.2952697  )
         2           C   tau(   2) = (   0.4043485   0.4972565   0.2952697  )
         3           C   tau(   3) = (   0.4759200   0.4559443   0.2952697  )
         4           C   tau(   4) = (   0.4759147   0.3733258   0.2952697  )
         5           C   tau(   5) = (   0.4043360   0.3320243   0.2952697  )
         6           C   tau(   6) = (   0.3327698   0.4559561   0.2952697  )
         7           H   tau(   7) = (   0.4043556   0.5624374   0.2952697  )
         8           H   tau(   8) = (   0.5323692   0.4885290   0.2952697  )
         9           H   tau(   9) = (   0.5323614   0.3407364   0.2952697  )
        10           H   tau(  10) = (   0.4043317   0.2668437   0.2952697  )
        11           H   tau(  11) = (   0.2763126   0.3407557   0.2952697  )
        12           H   tau(  12) = (   0.2763252   0.4885497   0.2952697  )

     number of k points=     1
                       cart. coord. in units 2pi/alat
        k(    1) = (   0.0000000   0.0000000   0.0000000), wk =   2.0000000

     Dense  grid:   464872 G-vectors     FFT dimensions: ( 135, 135, 108)

     Estimated max dynamical RAM per process >     189.75 MB

     Estimated total dynamical RAM >     759.01 MB

     Check: negative core charge=   -0.000002

     Initial potential from superposition of free atoms

     starting charge      29.9997, renormalised to      30.0000

     negative rho (up, down):  2.435E-02 0.000E+00
     Starting wfcs are   30 randomized atomic wfcs

     total cpu time spent up to now is        3.5 secs

     Self-consistent Calculation

     iteration #  1     ecut=    40.00 Ry     beta= 0.70
     Davidson diagonalization with overlap
     ethr =  1.00E-02,  avg # of iterations =  2.0

     negative rho (up, down):  3.674E-02 0.000E+00

     total cpu time spent up to now is        5.4 secs

     total energy              =     -81.22605263 Ry
     estimated scf accuracy    <       1.40285276 Ry

     iteration #  2     ecut=    40.00 Ry     beta= 0.70
     Davidson diagonalization with overlap
     ethr =  4.68E-03,  avg # of iterations =  2.0

     negative rho (up, down):  3.741E-02 0.000E+00

     total cpu time spent up to now is        7.2 secs

     total energy              =     -81.51203762 Ry
     estimated scf accuracy    <       0.36049974 Ry

     iteration #  3     ecut=    40.00 Ry     beta= 0.70
     Davidson diagonalization with overlap
     ethr =  1.20E-03,  avg # of iterations =  2.0

     negative rho (up, down):  3.953E-02 0.000E+00

     total cpu time spent up to now is        8.9 secs

     total energy              =     -81.58948898 Ry
     estimated scf accuracy    <       0.01161942 Ry

     iteration #  4     ecut=    40.00 Ry     beta= 0.70
     Davidson diagonalization with overlap
     ethr =  3.87E-05,  avg # of iterations =  2.0

     negative rho (up, down):  3.992E-02 0.000E+00

     total cpu time spent up to now is       10.7 secs

     total energy              =     -81.59113465 Ry
     estimated scf accuracy    <       0.00011931 Ry

     iteration #  5     ecut=    40.00 Ry     beta= 0.70
     Davidson diagonalization with overlap
     ethr =  3.98E-07,  avg # of iterations =  3.0

     negative rho (up, down):  4.000E-02 0.000E+00

     total cpu time spent up to now is       12.6 secs

     total energy              =     -81.59117831 Ry
     estimated scf accuracy    <       0.00003151 Ry

     iteration #  6     ecut=    40.00 Ry     beta= 0.70
     Davidson diagonalization with overlap
     ethr =  1.05E-07,  avg # of iterations =  2.0

     negative rho (up, down):  4.000E-02 0.000E+00

     total cpu time spent up to now is       14.3 secs

     total energy              =     -81.59118474 Ry
     estimated scf accuracy    <       0.00000053 Ry

     iteration #  7     ecut=    40.00 Ry     beta= 0.70
     Davidson diagonalization with overlap
     ethr =  1.78E-09,  avg # of iterations =  2.0

     negative rho (up, down):  4.000E-02 0.000E+00

     total cpu time spent up to now is       16.1 secs

     total energy              =     -81.59118480 Ry
     estimated scf accuracy    <       0.00000006 Ry

     iteration #  8     ecut=    40.00 Ry     beta= 0.70
     Davidson diagonalization with overlap
     ethr =  2.03E-10,  avg # of iterations =  2.0

     negative rho (up, down):  4.000E-02 0.000E+00

     total cpu time spent up to now is       17.8 secs

     total energy              =     -81.59118482 Ry
     estimated scf accuracy    <          7.0E-10 Ry

     iteration #  9     ecut=    40.00 Ry     beta= 0.70
     Davidson diagonalization with overlap
     ethr =  2.34E-12,  avg # of iterations =  5.0

     negative rho (up, down):  4.000E-02 0.000E+00

     total cpu time spent up to now is       19.8 secs

     total energy              =     -81.59118482 Ry
     estimated scf accuracy    <          1.4E-10 Ry

     iteration # 10     ecut=    40.00 Ry     beta= 0.70
     Davidson diagonalization with overlap
     ethr =  4.73E-13,  avg # of iterations =  3.0

     negative rho (up, down):  4.000E-02 0.000E+00

     total cpu time spent up to now is       21.6 secs

     End of self-consistent calculation

          k = 0.0000 0.0000 0.0000 ( 58063 PWs)   bands (ev):

   -21.0037 -18.2178 -18.2133 -14.5949 -14.5926 -12.6338 -10.9242 -10.7263
   -10.0083 -10.0033  -8.8833  -8.0373  -8.0364  -6.1674  -6.1644

     highest occupied level (ev):    -6.1644

!    total energy              =     -81.59118482 Ry
     estimated scf accuracy    <          5.4E-11 Ry

     The total energy is the sum of the following terms:
     one-electron contribution =    -350.76896040 Ry
     hartree contribution      =     178.87140211 Ry
     xc contribution           =     -31.84586092 Ry
     ewald contribution        =     122.15223439 Ry

     convergence has been achieved in  10 iterations

     Writing all to output data dir ./outdir/C6H6.save/

     init_run     :      3.03s CPU      3.34s WALL (       1 calls)
     electrons    :     16.35s CPU     18.13s WALL (       1 calls)

     Called by init_run:
     wfcinit      :      0.52s CPU      0.53s WALL (       1 calls)
     potinit      :      1.08s CPU      1.23s WALL (       1 calls)
     hinit0       :      1.12s CPU      1.17s WALL (       1 calls)

     Called by electrons:
     c_bands      :      7.83s CPU      8.01s WALL (      10 calls)
     sum_band     :      3.29s CPU      3.85s WALL (      10 calls)
     v_of_rho     :      3.15s CPU      3.70s WALL (      11 calls)
     newd         :      1.82s CPU      2.44s WALL (      11 calls)
     mix_rho      :      0.55s CPU      0.60s WALL (      10 calls)

     Called by c_bands:
     init_us_2    :      0.13s CPU      0.13s WALL (      21 calls)
     init_us_2:cp :      0.13s CPU      0.13s WALL (      21 calls)
     regterg      :      7.64s CPU      7.82s WALL (      10 calls)

     Called by *egterg:
     rdiaghg      :      0.01s CPU      0.01s WALL (      35 calls)
     h_psi        :      6.47s CPU      6.63s WALL (      36 calls)
     s_psi        :      0.38s CPU      0.38s WALL (      36 calls)
     g_psi        :      0.02s CPU      0.02s WALL (      25 calls)

     Called by h_psi:
     h_psi:calbec :      0.40s CPU      0.40s WALL (      36 calls)
     vloc_psi     :      5.67s CPU      5.82s WALL (      36 calls)
     add_vuspsi   :      0.38s CPU      0.38s WALL (      36 calls)

     General routines
     calbec       :      0.51s CPU      0.51s WALL (      46 calls)
     fft          :      1.97s CPU      2.23s WALL (      99 calls)
     ffts         :      0.18s CPU      0.20s WALL (      10 calls)
     fftw         :      5.30s CPU      5.44s WALL (     572 calls)

     Parallel routines

     PWSCF        :     19.53s CPU     21.68s WALL


   This run was terminated on:   8:47:19  23Feb2024            

=------------------------------------------------------------------------------=
   JOB DONE.
=------------------------------------------------------------------------------=
