 DBCSR| CPU Multiplication driver                                           XSMM (U)
 DBCSR| Multrec recursion limit                                              512 (U)
 DBCSR| Multiplication stack size                                           1000 (D)
 DBCSR| Maximum elements for images                                    UNLIMITED (U)
 DBCSR| Multiplicative factor virtual images                                   1 (U)
 DBCSR| Use multiplication densification                                       T (D)
 DBCSR| Multiplication size stacks                                             3 (U)
 DBCSR| Use memory pool for CPU allocation                                     F (U)
 DBCSR| Number of 3D layers                                               SINGLE (U)
 DBCSR| Use MPI memory allocation                                              F (U)
 DBCSR| Use RMA algorithm                                                      F (U)
 DBCSR| Use Communication thread                                               T (U)
 DBCSR| Communication thread load                                             75 (D)
 DBCSR| MPI: My process id                                                     0
 DBCSR| MPI: Number of processes                                              90
 DBCSR| OMP: Current number of threads                                         4
 DBCSR| OMP: Max number of threads                                             4
 DBCSR| Split modifier for TAS multiplication algorithm                  1.0E+00 (U)


  **** **** ******  **  PROGRAM STARTED AT               2024-01-04 18:02:14.760
 ***** ** ***  *** **   PROGRAM STARTED ON                          f7dffac303b2
 **    ****   ******    PROGRAM STARTED BY                             <unknown>
 ***** **    ** ** **   PROGRAM PROCESS ID                                   538
  **** **  *******  **  PROGRAM STARTED IN                                  /mnt

 CP2K| version string:                                       CP2K version 2023.2
 CP2K| source code revision number:                                  git:65cca6c
 CP2K| cp2kflags: omp libint fftw3 libxc pexsi elpa parallel scalapack cosma qui
 CP2K|            p xsmm plumed2 spglib sirius libvori libbqb libtorch libvdwxc
 CP2K| is freely available from                            https://www.cp2k.org/
 CP2K| Program compiled at                          Wed Oct 18 11:40:41 UTC 2023
 CP2K| Program compiled on                                          633bb7bf566f
 CP2K| Program compiled for                                                local
 CP2K| Data directory path                                        /opt/cp2k/data
 CP2K| Input file name                                           4amp15_wB97X.in

 GLOBAL| Force Environment number                                              1
 GLOBAL| Basis set file name                                    BASIS_MOLOPT_UZH
 GLOBAL| Potential file name                                       POTENTIAL_UZH
 GLOBAL| MM Potential file name                                     MM_POTENTIAL
 GLOBAL| Coordinate file name                                      __STD_INPUT__
 GLOBAL| Method name                                                        CP2K
 GLOBAL| Project name                                               4amp15_wB97X
 GLOBAL| Run type                                                         ENERGY
 GLOBAL| FFT library                                                       FFTW3
 GLOBAL| Diagonalization library                                       ScaLAPACK
 GLOBAL| DGEMM library                                                      BLAS
 GLOBAL| Orthonormality check for eigenvectors                          DISABLED
 GLOBAL| Matrix multiplication library                                     COSMA
 GLOBAL| All-to-all communication in single precision                          F
 GLOBAL| FFTs using library dependent lengths                                  F
 GLOBAL| Grid backend                                                       AUTO
 GLOBAL| Global print level                                                  LOW
 GLOBAL| MPI I/O enabled                                                       T
 GLOBAL| Total number of message passing processes                            90
 GLOBAL| Number of threads for this process                                    4
 GLOBAL| This output is from process                                           0
 GLOBAL| Stack size for threads created by OpenMP (OMP_STACKSIZE)            16M
 GLOBAL| CPU model name                                            AMD EPYC 9B14
 GLOBAL| CPUID                                                              1003
 GLOBAL| Compiled for CPUID                                                    0

 *** HINT in environment.F:904 :: The compiler target flags (generic) used ***
 *** to build this binary cannot exploit all extensions of this CPU model  ***
 *** (x86_avx512). Consider compiler target flags as part of FCFLAGS and   ***
 *** CFLAGS (ARCH file).                                                   ***


 MEMORY| system memory details [Kb]
 MEMORY|                        rank 0           min           max       average
 MEMORY| MemTotal            730500096     730500096     730500096     730500096
 MEMORY| MemFree             715508056     715508056     715508056     715508056
 MEMORY| Buffers                 19144         19144         19144         19144
 MEMORY| Cached                1456764       1456764       1456764       1456764
 MEMORY| Slab                   794240        794240        794240        794240
 MEMORY| SReclaimable           180800        180800        180800        180800
 MEMORY| MemLikelyFree       717164764     717164764     717164764     717164764


 GENERATE|  Preliminary Number of Bonds generated:                             0
 GENERATE|  Achieved consistency in connectivity generation.

 *******************************************************************************
 *******************************************************************************
 **                                                                           **
 **     #####                         ##              ##                      **
 **    ##   ##            ##          ##              ##                      **
 **   ##     ##                       ##            ######                    **
 **   ##     ##  ##   ##  ##   #####  ##  ##   ####   ##    #####    #####    **
 **   ##     ##  ##   ##  ##  ##      ## ##   ##      ##   ##   ##  ##   ##   **
 **   ##  ## ##  ##   ##  ##  ##      ####     ###    ##   ######   ######    **
 **    ##  ###   ##   ##  ##  ##      ## ##      ##   ##   ##       ##        **
 **     #######   #####   ##   #####  ##  ##  ####    ##    #####   ##        **
 **           ##                                                    ##        **
 **                                                                           **
 **                                                ... make the atoms dance   **
 **                                                                           **
 **            Copyright (C) by CP2K developers group (2000-2023)             **
 **                      J. Chem. Phys. 152, 194103 (2020)                    **
 **                                                                           **
 *******************************************************************************


 TOTAL NUMBERS AND MAXIMUM NUMBERS

  Total number of            - Atomic kinds:                                   4
                             - Atoms:                                        196
                             - Shell sets:                                   196
                             - Shells:                                      1120
                             - Primitive Cartesian functions:                980
                             - Cartesian basis functions:                   2520
                             - Spherical basis functions:                   2408

  Maximum angular momentum of- Orbital basis functions:                        2
                             - Local part of the GTH pseudopotential:          2
                             - Non-local part of the GTH pseudopotential:      0

  AUX_FIT ADMM-Basis: 
  Total number of            - Shell sets:                                  1120
                             - Shells:                                      1120
                             - Primitive Cartesian functions:               1428
                             - Cartesian basis functions:                   2520
                             - Spherical basis functions:                   2408
                               Maximum angular momentum                        2


 SCF PARAMETERS         Density guess:                                    ATOMIC
                        --------------------------------------------------------
                        max_scf:                                              20
                        max_scf_history:                                       0
                        max_diis:                                              4
                        --------------------------------------------------------
                        eps_scf:                                        1.00E-05
                        eps_scf_history:                                0.00E+00
                        eps_diis:                                       1.00E-01
                        eps_eigval:                                     1.00E-05
                        --------------------------------------------------------
                        level_shift [a.u.]:                             0.000000
                        --------------------------------------------------------
                        Outer loop SCF in use 
                        No variables optimised in outer loop
                        eps_scf                                         1.00E-05
                        max_scf                                               20
                        No outer loop optimization
                        step_size                                       5.00E-01

 Number of electrons:                                                        560
 Number of occupied orbitals:                                                280
 Number of molecular orbitals:                                               280

 Number of orbital functions:                                               2408
 Number of independent orbital functions:                                   2408

 Extrapolation method: initial_guess


 SCF WAVEFUNCTION OPTIMIZATION

  ----------------------------------- OT ---------------------------------------
  Minimizer      : DIIS                : direct inversion
                                         in the iterative subspace
                                         using   7 DIIS vectors
                                         safer DIIS on
  Preconditioner : FULL_ALL            : diagonalization, state selective
  Precond_solver : DEFAULT
  stepsize       :    0.15000000                  energy_gap     :    0.00100000
  eps_taylor     :   0.10000E-15                  max_taylor     :             4
  ----------------------------------- OT ---------------------------------------

  Step     Update method      Time    Convergence         Total energy    Change
  ------------------------------------------------------------------------------
     1 OT DIIS     0.15E+00  243.3     0.03409166      -741.3502263139 -7.41E+02
     2 OT DIIS     0.15E+00  225.1     0.03952297      -793.5717999878 -5.22E+01
     3 OT DIIS     0.15E+00  227.3     0.03282547      -804.1352402301 -1.06E+01
     4 OT DIIS     0.15E+00  224.8     0.04198580      -806.2323068443 -2.10E+00
     5 OT DIIS     0.15E+00  225.9     0.01378386      -817.3439714349 -1.11E+01
     6 OT DIIS     0.15E+00  227.2     0.00917240      -820.5084595087 -3.16E+00
     7 OT DIIS     0.15E+00  225.2     0.00529617      -822.2460908739 -1.74E+00
     8 OT DIIS     0.15E+00  225.4     0.00381527      -823.1622761089 -9.16E-01
     9 OT DIIS     0.15E+00  225.1     0.00259831      -823.7645333106 -6.02E-01
    10 OT DIIS     0.15E+00  225.1     0.00194202      -824.1642706326 -4.00E-01
    11 OT DIIS     0.15E+00  225.5     0.00161629      -824.3724386418 -2.08E-01
    12 OT DIIS     0.15E+00  225.1     0.00123698      -824.5551944904 -1.83E-01
    13 OT DIIS     0.15E+00  225.1     0.00093049      -824.6858506905 -1.31E-01
    14 OT DIIS     0.15E+00  226.8     0.00071460      -824.7529407245 -6.71E-02
    15 OT DIIS     0.15E+00  225.8     0.00049717      -824.7933366014 -4.04E-02
    16 OT DIIS     0.15E+00  226.0     0.00038832      -824.8089351591 -1.56E-02
    17 OT DIIS     0.15E+00  225.5     0.00026614      -824.8215940703 -1.27E-02
    18 OT DIIS     0.15E+00  226.9     0.00020209      -824.8293327954 -7.74E-03
    19 OT DIIS     0.15E+00  227.1     0.00016538      -824.8345717501 -5.24E-03
    20 OT DIIS     0.15E+00  227.4     0.00013255      -824.8384160057 -3.84E-03

  Leaving inner SCF loop after reaching    20 steps.


  Electronic density on regular grids:       -559.9999999683        0.0000000317
  Core density on regular grids:              559.9999999598       -0.0000000402
  Total charge density on r-space grids:       -0.0000000084
  Total charge density g-space grids:          -0.0000000084

  Overlap energy of the core charge distribution:               0.00146218304205
  Self energy of the core charge distribution:              -1985.29240839861768
  Core Hamiltonian energy:                                    643.81785484903492
  Hartree energy:                                             773.16010871868400
  Exchange-correlation energy:                               -149.62735503480098
  Hartree-Fock Exchange energy:                              -108.42042245973764
  Dispersion energy:                                            1.52234413671197

  Total energy:                                              -824.83841600568326

  outer SCF iter =    1 RMS gradient =   0.13E-03 energy =       -824.8384160057

  ----------------------------------- OT ---------------------------------------
  Minimizer      : DIIS                : direct inversion
                                         in the iterative subspace
                                         using   7 DIIS vectors
                                         safer DIIS on
  Preconditioner : FULL_ALL            : diagonalization, state selective
  Precond_solver : DEFAULT
  stepsize       :    0.15000000                  energy_gap     :    0.00100000
  eps_taylor     :   0.10000E-15                  max_taylor     :             4
  ----------------------------------- OT ---------------------------------------

  Step     Update method      Time    Convergence         Total energy    Change
  ------------------------------------------------------------------------------
     1 OT DIIS     0.15E+00  454.4     0.00040537      -824.8409322871 -2.52E-03
     2 OT DIIS     0.15E+00  225.2     0.00016776      -824.8526065854 -1.17E-02
     3 OT DIIS     0.15E+00  224.5     0.00003380      -824.8550356948 -2.43E-03
     4 OT DIIS     0.15E+00  225.7     0.00001753      -824.8550919743 -5.63E-05
     5 OT DIIS     0.15E+00  225.3     0.00000794      -824.8551303493 -3.84E-05

  *** SCF run converged in     5 steps ***


  Electronic density on regular grids:       -559.9999999682        0.0000000318
  Core density on regular grids:              559.9999999598       -0.0000000402
  Total charge density on r-space grids:       -0.0000000083
  Total charge density g-space grids:          -0.0000000083

  Overlap energy of the core charge distribution:               0.00146218304205
  Self energy of the core charge distribution:              -1985.29240839861768
  Core Hamiltonian energy:                                    643.82634437875072
  Hartree energy:                                             773.14843859317034
  Exchange-correlation energy:                               -149.63061787951122
  Hartree-Fock Exchange energy:                              -108.43077310233500
  Dispersion energy:                                            1.52242387622263

  Total energy:                                              -824.85513034927817

  outer SCF iter =    2 RMS gradient =   0.79E-05 energy =       -824.8551303493
  outer SCF loop converged in   2 iterations or   25 steps

  
  Eigenvalues of the occupied subspace spin            1
 ---------------------------------------------
      -0.98947214     -0.98943673     -0.98619094     -0.98614984
      -0.98416533     -0.98413995     -0.98394514     -0.98390589
      -0.96186558     -0.96178703     -0.96176098     -0.96167335
      -0.88060972     -0.88051882     -0.87999951     -0.87990500
      -0.81670696     -0.81658720     -0.81535839     -0.81516074
      -0.81260843     -0.81180070     -0.81178798     -0.81111821
      -0.80139516     -0.80045691     -0.79987700     -0.79904448
      -0.75357342     -0.75333380     -0.75277463     -0.75275989
      -0.72233678     -0.72181948     -0.72120277     -0.72054968
      -0.71618571     -0.71494721     -0.71227187     -0.71193126
      -0.70997326     -0.70816525     -0.70763654     -0.70754404
      -0.70581174     -0.70467416     -0.70272657     -0.70267944
      -0.69518995     -0.69450475     -0.69391991     -0.69363504
      -0.68253269     -0.68156949     -0.68136040     -0.68075887
      -0.65475109     -0.65417799     -0.65142790     -0.65072304
      -0.64425465     -0.64305033     -0.64285429     -0.64187004
      -0.61268994     -0.61247807     -0.61219347     -0.61218389
      -0.58991891     -0.58971943     -0.58839314     -0.58821958
      -0.56320881     -0.56320518     -0.56311814     -0.56301707
      -0.56088703     -0.55931706     -0.55852931     -0.55737905
      -0.55690550     -0.55504878     -0.55467832     -0.55455243
      -0.54564569     -0.54452282     -0.54377845     -0.54326876
      -0.51413064     -0.51306554     -0.50993396     -0.50991333
      -0.49707279     -0.49507874     -0.49412685     -0.49188143
      -0.48482352     -0.48382955     -0.47994224     -0.47880100
      -0.47461594     -0.47415868     -0.47284000     -0.47155144
      -0.46768493     -0.46706335     -0.46669723     -0.46457697
      -0.45911580     -0.45903412     -0.45241422     -0.45179853
      -0.42797917     -0.42734799     -0.42731929     -0.42658650
      -0.41266797     -0.41238281     -0.41026966     -0.40905073
      -0.40730462     -0.40664853     -0.40594090     -0.40446107
      -0.40190725     -0.40035780     -0.39988105     -0.39853414
      -0.39816138     -0.39649022     -0.39614542     -0.39548854
      -0.39421808     -0.39350968     -0.39200213     -0.39124491
      -0.38643470     -0.38608808     -0.38578565     -0.38526062
      -0.38454201     -0.38420740     -0.38407007     -0.38304829
      -0.37949626     -0.37942901     -0.37679699     -0.37465382
      -0.36915875     -0.36806198     -0.36524428     -0.36520486
      -0.35582531     -0.35473072     -0.35410424     -0.35406120
      -0.35077846     -0.34889414     -0.34723374     -0.34633334
      -0.34462714     -0.34452733     -0.34300135     -0.34283845
      -0.34200801     -0.34048642     -0.33931924     -0.33794071
      -0.33549656     -0.33267876     -0.33265848     -0.33224570
      -0.33087350     -0.33023604     -0.32845731     -0.32837014
      -0.32461858     -0.32378617     -0.32355212     -0.32232939
      -0.32122406     -0.32115902     -0.32094582     -0.31856884
      -0.31648788     -0.31546518     -0.31450724     -0.31406900
      -0.31332168     -0.31157058     -0.30922124     -0.30740679
      -0.29992233     -0.29976660     -0.29915383     -0.29856565
      -0.29648648     -0.29559859     -0.29516150     -0.29299228
      -0.27570944     -0.27497960     -0.27461024     -0.27427172
      -0.26629022     -0.26616281     -0.26481374     -0.26329801
      -0.26055200     -0.25825580     -0.25785849     -0.25642684
      -0.25283640     -0.25271547     -0.25270485     -0.25197485
      -0.25076351     -0.25069528     -0.25010580     -0.24992683
      -0.24962278     -0.24727435     -0.24523518     -0.24518250
      -0.23587890     -0.23525650     -0.23290608     -0.23162671
      -0.22354796     -0.22274545     -0.22146112     -0.22138561
      -0.21688661     -0.21678850     -0.21630934     -0.21614551
      -0.20946364     -0.20926117     -0.20565112     -0.20379645
      -0.20208571     -0.20107819     -0.19635227     -0.19617755
      -0.16932899     -0.16931796     -0.16736102     -0.16725371
      -0.16228188     -0.16207423     -0.15980552     -0.15953044
      -0.13381328     -0.13374709     -0.13342206     -0.13334033
      -0.12181428     -0.12168473     -0.11833548     -0.11671782
      -0.11405753     -0.11331663     -0.10946508     -0.10665893
      -0.09980543     -0.09945329     -0.09689817     -0.09682991
      -0.08127554     -0.07956819     -0.07658099     -0.07457373
      -0.07364957     -0.07222837     -0.07182162     -0.07094879
      -0.06271958     -0.06183187     -0.05940657     -0.05827666
 Fermi Energy [eV] :   -1.585788
  
  Lowest Eigenvalues of the unoccupied subspace spin            1
 -----------------------------------------------------
 WARNING : did not converge in ot_eigensolver
 number of iterations          299  exceeded maximum
 current gradient / target gradient   7.4903875640627360E-005  /    1.0000000000000001E-005
       0.17928592
  
 HOMO - LUMO gap [eV] :    6.464407

 *******************************************************************************
 **                                                                           **
 **         ######## #######   #######   ######## #######  ########           **
 **            ##    ##     ## ##     ## ##       ##   ##     ##              **
 **            ##    ##     ## ##     ## ######   #######     ##              **
 **            ##    ##     ## ##     ## ##       ##          ##              **
 **            ##    #######   #######   ##       ##          ##              **
 **                                                                           **
 *******************************************************************************
 KERNEL|                                                                    sTDA
 KERNEL| Coulomb term uses Ewald summation
 KERNEL| Exact exchange term                                                 YES
 KERNEL| Short range HFX fraction:                                         0.200
 KERNEL| Transition density filter                                     0.100E-09
 KERNEL| Spin symmetry of excitations                                    Singlet
 TDDFPT| Number of states calculated                                          50
 TDDFPT| Number of Davidson iterations                                       100
 TDDFPT| Davidson iteration convergence                                0.367E-05
 TDDFPT| Max. number of Krylov space vectors                                5000
 TDDFPT| Molecular Orbitals:        Spin       AOs       Occ      Virt     Total
 TDDFPT|                               1      2408       280      2128      2408
 sTDA| HFX Fraction                                                       0.2000
 sTDA| Mataga-Nishimoto exponent (C)                                      1.5160
 sTDA| Mataga-Nishimoto exponent (X)                                      0.5660
 sTDA| TD matrix filter                                           0.10000000E-09
 
 -------------------------------------------------------------------------------
 -                      sTDA Kernel: Create Matrix SQRT(S)                     -
 -------------------------------------------------------------------------------

     Lanczos converged:  F threshold:   0.100E-03
     Est. extremal eigenvalues:    0.119E+02   0.278E-02
     Est. condition number :    0.427E+04

 Order=           3
     NS sqrt iter    1 1.00000000   0.297E+01       0.217     2291.815
     NS sqrt iter    2 1.00000000   0.151E+01       0.231     5383.373
     NS sqrt iter    3 1.00000000   0.823E+00       0.224     5543.834
     NS sqrt iter    4 1.00000000   0.575E+00       0.232     5356.697
     NS sqrt iter    5 1.00000000   0.441E+00       0.238     5215.873
     NS sqrt iter    6 1.00000000   0.312E+00       0.232     5359.539
     NS sqrt iter    7 1.00000000   0.179E+00       0.224     5538.252
     NS sqrt iter    8 1.00000000   0.885E-01       0.236     5262.950
     NS sqrt iter    9 1.00000000   0.207E-01       0.223     5572.086
     NS sqrt iter   10 1.00000000   0.477E-03       0.227     5275.214
     NS sqrt iter   11 1.00000000   0.114E-07       0.174     1852.357
     Symmetrizing Results
     Final NS sqrt iter   11 1.00000000   0.574E-07


 EWALD| Summation is done by:                                               SPME
 EWALD| Alpha parameter [       ANGSTROM^-1]                              1.8897
 EWALD| Real Space Cutoff [          ANGSTROM]                            1.7854
 EWALD| G-space max. Miller index                        125        45       225
 EWALD| Spline interpolation order                                             6
 
 -------------------------------------------------------------------------------
 -                            TDDFPT Initial Guess                             -
 -------------------------------------------------------------------------------
          State         Occupied      ->      Virtual          Excitation
          number         orbital              orbital          energy (eV)
 -------------------------------------------------------------------------------
             1              280                  281              6.45285
             2              280                  282              6.46230
             3              280                  283              6.46280
             4              280                  284              6.48081
             5              279                  281              6.48360
             6              279                  282              6.49305
             7              279                  283              6.49355
             8              279                  284              6.51156
             9              278                  281              6.54960
            10              278                  282              6.55904
            11              278                  283              6.55954
            12              277                  281              6.57375
            13              278                  284              6.57756
            14              277                  282              6.58320
            15              277                  283              6.58370
            16              277                  284              6.60171
            17              276                  281              6.79768
            18              276                  282              6.80713
            19              276                  283              6.80763
            20              275                  281              6.82143
            21              276                  284              6.82564
            22              275                  282              6.83088
            23              275                  283              6.83138
            24              274                  281              6.83250
            25              274                  282              6.84195
            26              274                  283              6.84244
            27              275                  284              6.84939
            28              274                  284              6.86046
            29              273                  281              6.87117
            30              273                  282              6.88062
            31              273                  283              6.88112
            32              272                  281              6.89632
            33              273                  284              6.89913
            34              272                  282              6.90577
            35              272                  283              6.90627
            36              272                  284              6.92428
            37              271                  281              6.95094
            38              271                  282              6.96039
            39              271                  283              6.96089
            40              271                  284              6.97890
            41              270                  281              7.03223
            42              270                  282              7.04167
            43              270                  283              7.04217
            44              270                  284              7.06019
            45              269                  281              7.07869
            46              269                  282              7.08813
            47              269                  283              7.08863
            48              269                  284              7.10665
            49              280                  285              7.21505
            50              280                  286              7.23812

      Number of active states:                                     595840
 -------------------------------------------------------------------------------
 
 -------------------------------------------------------------------------------
 -                      TDDFPT WAVEFUNCTION OPTIMIZATION                       -
 -------------------------------------------------------------------------------

          Step            Time         Convergence           Conv. states
 -------------------------------------------------------------------------------
             1            10.8          2.3970E-02                      0
             2             9.3          3.0420E-03                      0
             3             9.0          7.1507E-04                      2
             4             9.3          3.7761E-04                     19
             5             9.3          2.8702E-04                     48
             6            16.1          3.6193E-05                     48
             7             5.5          1.9898E-06                     50
 ------------------------- Restart Davidson iterations -------------------------
             8             5.2          6.9389E-16                     50
 
 -------------------------------------------------------------------------------
 -  TDDFPT run converged in 8 iteration(s) 
 -------------------------------------------------------------------------------

 R-TDDFPT states of multiplicity 1
 Transition dipoles calculated using velocity formulation

         State    Excitation        Transition dipole (a.u.)        Oscillator
         number   energy (eV)       x           y           z     strength (a.u.)
         ------------------------------------------------------------------------
 TDDFPT|      1       5.79279   1.6205E-02 -1.9625E-03 -3.6790E-03   3.97362E-05
 TDDFPT|      2       5.79576   9.1868E-03 -7.3260E-03 -8.7920E-04   1.97145E-05
 TDDFPT|      3       5.81674  -8.1642E-03 -2.2247E-01  1.4904E-03   7.06325E-03
 TDDFPT|      4       5.82179   1.4373E+00 -1.7843E-03 -2.9604E-01   3.07159E-01
 TDDFPT|      5       5.83186   1.9297E+00 -1.3230E-04 -4.7314E-01   5.64019E-01
 TDDFPT|      6       5.83663  -8.4655E-02 -2.3598E-02  2.0788E-02   1.16619E-03
 TDDFPT|      7       5.84515  -2.4434E-02 -3.7930E-02  8.2276E-03   3.01215E-04
 TDDFPT|      8       5.85386   2.6230E-03 -1.6947E+00 -3.5872E-04   4.11900E-01
 TDDFPT|      9       5.94386   5.4291E-03  8.1517E-03 -2.9702E-04   1.39816E-05
 TDDFPT|     10       5.94795  -1.2163E-01 -2.1928E-03 -6.3004E-04   2.15665E-03
 TDDFPT|     11       5.94912   9.2520E-01  8.6228E-03  2.8476E-03   1.24775E-01
 TDDFPT|     12       5.96494  -4.6162E-03  1.1827E+00 -9.0131E-04   2.04435E-01
 TDDFPT|     13       6.00391   1.0484E-01 -8.1052E-04 -6.0456E-02   2.15446E-03
 TDDFPT|     14       6.00869   2.7833E-02  1.2262E-02 -1.7863E-02   1.83144E-04
 TDDFPT|     15       6.01032   4.9144E-03 -7.0447E-02 -2.9147E-03   7.35574E-04
 TDDFPT|     16       6.01651   3.6785E-03 -1.4060E-02 -1.9262E-03   3.16819E-05
 TDDFPT|     17       6.13286  -3.2882E-03 -3.1731E-03 -1.9665E-03   3.71850E-06
 TDDFPT|     18       6.14248   1.2724E-03 -2.3608E-01  1.3069E-02   8.41295E-03
 TDDFPT|     19       6.14908   2.6905E-01  4.4880E-03  6.9531E-01   8.37411E-02
 TDDFPT|     20       6.15038  -4.7300E-03 -3.1965E-03 -2.5359E-02   1.01815E-04
 TDDFPT|     21       6.17661  -1.6994E-02 -9.4248E-04  1.8339E-02   9.47267E-05
 TDDFPT|     22       6.17855   1.5617E-01 -5.9571E-03 -3.2587E-01   1.97713E-02
 TDDFPT|     23       6.17939   1.4987E-01  2.0238E-03 -3.0941E-01   1.78944E-02
 TDDFPT|     24       6.19371   1.5325E-02 -1.2120E-01  4.3355E-03   2.26743E-03
 TDDFPT|     25       6.19750  -1.9404E-02  5.7744E-03  2.2119E-03   6.29763E-05
 TDDFPT|     26       6.19947  -3.2113E-01 -7.5343E-03  2.3327E-02   1.57545E-02
 TDDFPT|     27       6.20599   1.4349E-02 -1.4045E-02 -2.2450E-03   6.20655E-05
 TDDFPT|     28       6.21252   3.2907E-02  6.1490E-05 -9.2063E-03   1.77721E-04
 TDDFPT|     29       6.22950   1.0609E-02 -3.8054E-02  1.4470E-03   2.38508E-04
 TDDFPT|     30       6.23355  -3.2209E-02  2.1450E-02 -8.2844E-03   2.39177E-04
 TDDFPT|     31       6.23900   1.0983E-02 -5.3606E-01  7.7556E-04   4.39418E-02
 TDDFPT|     32       6.24956   8.9659E-01  7.1193E-03  9.4289E-02   1.24450E-01
 TDDFPT|     33       6.29714   2.6538E-02 -2.2357E-02 -1.0913E-02   2.04140E-04
 TDDFPT|     34       6.30364  -1.6722E-01  9.4639E-03  6.5206E-02   4.98883E-03
 TDDFPT|     35       6.30776   1.0655E+00  2.6200E-03 -4.4382E-01   2.05888E-01
 TDDFPT|     36       6.31455   1.1212E-02 -5.0102E-01 -3.8057E-03   3.88555E-02
 TDDFPT|     37       6.35459  -4.5352E-01 -5.9342E-02  1.3574E-01   3.54384E-02
 TDDFPT|     38       6.35607  -1.3838E-01  1.8509E-01  4.0890E-02   8.57705E-03
 TDDFPT|     39       6.35866   1.5503E-01  2.3867E-02 -4.6114E-02   4.16437E-03
 TDDFPT|     40       6.36003  -5.4503E-02  6.6928E-02  1.5724E-02   1.19936E-03
 TDDFPT|     41       6.41222   2.1546E-02 -4.3329E-03 -3.0737E-03   7.73599E-05
 TDDFPT|     42       6.41543  -3.0677E-02  7.7092E-03  4.9709E-03   1.61138E-04
 TDDFPT|     43       6.42131  -7.4562E-01 -1.0234E-02  1.1680E-01   8.96230E-02
 TDDFPT|     44       6.43123  -1.4210E-02  4.0526E-01  2.3171E-03   2.59095E-02
 TDDFPT|     45       6.48631   2.4452E-01  3.2475E-03 -1.5991E-01   1.35670E-02
 TDDFPT|     46       6.49253   3.5084E-02  2.1427E-02 -2.4572E-02   3.64855E-04
 TDDFPT|     47       6.49324  -1.9645E-02  7.1917E-02  1.3652E-02   9.13822E-04
 TDDFPT|     48       6.50259   4.0858E-03 -6.9286E-03 -2.6202E-03   1.14011E-05
 TDDFPT|     49       6.56587   3.9433E-01 -3.3343E-04 -7.3614E-01   1.12185E-01
 TDDFPT|     50       6.57929   1.1186E-02  3.3687E-03 -2.0538E-02   8.99858E-05

 TDDFPT : CheckSum  =  0.160677E+01
 
 -------------------------------------------------------------------------------
 -                            Excitation analysis                              -
 -------------------------------------------------------------------------------
        State             Occupied              Virtual             Excitation
        number             orbital              orbital             amplitude
 -------------------------------------------------------------------------------
             1   5.79279 eV
                               280                  281              -0.898673
                               278                  282               0.355149
                               278                  283              -0.218043
                               279                  283               0.065897
                               274                  283               0.046812
                               279                  282               0.044305
                               273                  284              -0.039519
                               274                  282               0.029425
                               280                  282               0.028908
                               276                  281               0.027167
                               280                  283               0.024286
                               272                  281               0.021214
                               269                  284              -0.015824
                               278                  281              -0.013828
                               279                  298               0.012662
                               265                  283               0.010880
                               261                  289               0.010510
                               263                  290               0.010167
             2   5.79576 eV
                               280                  282              -0.750039
                               280                  283               0.463075
                               278                  281               0.447985
                               279                  284              -0.095713
                               274                  284              -0.045147
                               273                  283               0.031072
                               278                  283              -0.022558
                               280                  285              -0.022440
                               279                  286              -0.021394
                               273                  282               0.019945
                               278                  287               0.019502
                               277                  283              -0.018182
                               276                  282               0.016372
                               272                  285              -0.016037
                               264                  286               0.014458
                               270                  287              -0.014396
                               280                  284              -0.014265
                               280                  281              -0.012478
                               272                  292               0.012424
                               270                  281               0.012046
                               279                  290               0.011485
                               261                  290               0.011381
                               269                  283               0.011370
                               279                  294              -0.011064
                               272                  282               0.010557
                               263                  288               0.010457
                               258                  293              -0.010338
                               276                  283              -0.010273
                               262                  282              -0.010267
                               277                  282              -0.010117
             3   5.81674 eV
                               280                  283              -0.632254
                               279                  281              -0.497918
                               280                  282              -0.390142
                               278                  284              -0.322909
                               277                  282               0.250697
                               277                  283              -0.154900
                               274                  281               0.039107
                               273                  282               0.037213
                               280                  281              -0.030961
                               275                  284              -0.030241
                               272                  283               0.023491
                               273                  283              -0.023456
                               270                  284              -0.017696
                               271                  287              -0.014833
                               272                  282               0.014824
                               265                  281               0.013129
                               277                  285               0.011610
                               279                  287              -0.011305
                               269                  285              -0.010964
                               279                  291               0.010169
             4   5.82179 eV
                               280                  284               0.864890
                               278                  283               0.384601
                               278                  282               0.237584
                               277                  281               0.127008
                               279                  282              -0.120367
                               279                  283               0.078178
                               273                  281               0.048548
                               274                  282               0.037344
                               278                  281               0.024721
                               274                  283              -0.024289
                               272                  284              -0.021172
                               279                  292              -0.018497
                               275                  283               0.018209
                               270                  283               0.013650
                               265                  282               0.013444
                               280                  282              -0.013375
                               271                  285              -0.012832
                               275                  282               0.012280
                               266                  281               0.011757
                               277                  291              -0.010923
                               271                  282              -0.010746
                               279                  284               0.010024
             5   5.83186 eV
                               279                  282               0.761791
                               279                  283              -0.431629
                               277                  281              -0.426996
                               280                  284               0.190294
                               276                  284              -0.042794
                               271                  282              -0.032953
                               275                  283              -0.028379
                               269                  281              -0.025724
                               278                  283               0.024775
                               267                  284               0.021577
                               280                  286               0.020151
                               271                  283               0.019888
                               275                  282              -0.019534
                               272                  286              -0.017547
                               280                  290              -0.016219
                               279                  285               0.016115
                               268                  283               0.015078
                               266                  281               0.014109
                               277                  284               0.013625
                               280                  294               0.013525
                               258                  290               0.013138
                               257                  289               0.011919
                               262                  284               0.011635
                               278                  289               0.011463
                               264                  282              -0.011462
                               279                  284              -0.011218
                               274                  282               0.010850
                               271                  292              -0.010642
                               276                  290              -0.010472
                               268                  282               0.010025
             6   5.83663 eV
                               279                  283               0.783890
                               279                  282               0.447090
                               277                  284               0.405474
                               278                  282              -0.069096
                               276                  281               0.058695
                               280                  281               0.048230
                               278                  283               0.039214
                               279                  281               0.037200
                               275                  282              -0.035448
                               275                  283               0.024070
                               280                  283              -0.020700
                               270                  282              -0.017802
                               272                  281              -0.014769
                               267                  281              -0.014539
                               277                  281               0.014331
                               273                  284               0.012416
                               271                  283              -0.012123
                               272                  287               0.011958
                               280                  282              -0.011896
                               270                  283               0.011609
                               274                  283               0.011531
                               280                  291              -0.011082
                               269                  286              -0.010696
                               280                  299               0.010612
                               278                  285              -0.010386
             7   5.84515 eV
                               279                  284              -0.862302
                               277                  283              -0.406917
                               277                  282              -0.259597
                               278                  281              -0.081116
                               280                  282               0.050240
                               280                  283              -0.047788
                               275                  281              -0.047680
                               276                  282               0.042721
                               276                  283              -0.024537
                               279                  281               0.022686
                               270                  281              -0.019432
                               271                  286              -0.018609
                               280                  285              -0.017254
                               280                  292               0.017208
                               272                  282              -0.016494
                               269                  288              -0.016416
                               279                  286              -0.016381
                               273                  283              -0.016056
                               277                  288               0.015361
                               279                  282              -0.013011
                               272                  283               0.010984
                               278                  291               0.010782
                               265                  284               0.010764
             8   5.85386 eV
                               279                  281               0.769328
                               280                  283              -0.477659
                               280                  282              -0.297221
                               277                  282              -0.176469
                               277                  283               0.123211
                               271                  281              -0.079880
                               276                  283               0.073739
                               278                  284              -0.073150
                               274                  281               0.055799
                               275                  284               0.048649
                               276                  282               0.044603
                               279                  283              -0.039872
                               277                  285               0.033592
                               278                  286               0.033031
                               273                  282               0.032414
                               268                  284              -0.032288
                               267                  283              -0.031993
                               269                  282              -0.028312
                               265                  281               0.026247
                               279                  284               0.025279
                               272                  288              -0.024642
                               266                  282               0.023536
                               272                  283               0.023434
                               280                  281              -0.021266
                               273                  283              -0.019752
                               267                  282              -0.019553
                               280                  288              -0.019202
                               279                  287              -0.018275
                               269                  283               0.017670
                               257                  290               0.016393
                               279                  282              -0.015979
                               272                  282               0.015219
                               258                  289               0.015207
                               266                  283              -0.014450
                               274                  287              -0.013875
                               271                  287              -0.013299
                               264                  291               0.012195
                               263                  293              -0.012012
                               263                  292              -0.011881
                               280                  298              -0.011725
                               270                  286              -0.011058
                               273                  293               0.010963
                               280                  289              -0.010892
                               260                  285              -0.010763
                               264                  281              -0.010548
             9   5.94386 eV
                               278                  281              -0.772099
                               277                  283               0.367925
                               280                  282              -0.328117
                               277                  282               0.233668
                               279                  284              -0.207073
                               280                  283               0.202543
                               275                  281               0.062291
                               278                  282               0.051399
                               273                  283              -0.044737
                               277                  281               0.044596
                               278                  283               0.043912
                               272                  282               0.037045
                               271                  284               0.036911
                               273                  282              -0.028926
                               272                  283              -0.022959
                               270                  281              -0.022435
                               277                  288              -0.021648
                               280                  284              -0.019052
                               272                  285               0.018624
                               278                  287              -0.018612
                               280                  281               0.016078
                               271                  286               0.015687
                               277                  284               0.013527
                               278                  291              -0.013373
                               279                  283              -0.012320
                               269                  283               0.011882
                               263                  288              -0.010778
                               274                  286               0.010746
                               277                  298               0.010324
                               277                  289               0.010211
                               273                  289               0.010056
            10   5.94795 eV
                               278                  282              -0.717824
                               277                  284              -0.431517
                               280                  281              -0.359587
                               278                  283               0.339947
                               279                  283               0.110809
                               279                  282               0.104171
                               277                  281               0.078458
                               273                  284               0.069233
                               275                  282               0.066561
                               272                  281               0.046648
                               280                  284               0.040049
                               278                  284              -0.038644
                               277                  282               0.035606
                               280                  283               0.031121
                               275                  283              -0.030494
                               276                  281              -0.027242
                               271                  283              -0.024186
                               278                  281              -0.023698
                               271                  282              -0.018121
                               279                  281               0.016561
                               274                  283              -0.015275
                               279                  288              -0.012931
                               272                  287               0.012559
                               274                  282              -0.012543
                               270                  282              -0.012140
                               277                  286              -0.011722
                               278                  292               0.011353
                               277                  294              -0.011127
                               271                  288               0.010551
                               273                  281              -0.010348
                               269                  286              -0.010176
            11   5.94912 eV
                               278                  283               0.649860
                               277                  281              -0.559436
                               280                  284              -0.326876
                               278                  282               0.282970
                               279                  282              -0.183033
                               279                  283               0.138690
                               273                  281               0.071112
                               275                  283              -0.068599
                               277                  284              -0.061806
                               280                  281              -0.045675
                               272                  284               0.036034
                               269                  281              -0.032434
                               278                  281               0.032147
                               275                  282              -0.031300
                               277                  291              -0.016727
                               270                  283               0.015397
                               270                  288              -0.013800
                               271                  282               0.013759
                               278                  289               0.013502
                               271                  283              -0.013374
                               277                  283               0.012686
                               277                  282               0.012570
                               278                  288              -0.012158
                               272                  286               0.011136
                               269                  287              -0.011094
                               271                  285               0.010777
                               263                  287              -0.010588
                               275                  289               0.010304
                               277                  287              -0.010225
            12   5.96494 eV
                               278                  284               0.722417
                               277                  282               0.523592
                               277                  283              -0.330807
                               279                  281               0.149889
                               280                  283              -0.149104
                               275                  284              -0.110190
                               273                  282              -0.092580
                               280                  282              -0.089779
                               273                  283               0.058024
                               274                  281              -0.056566
                               276                  283              -0.048976
                               269                  282               0.038110
                               276                  282              -0.029860
                               268                  284               0.027867
                               279                  287               0.025596
                               280                  288               0.025088
                               269                  283              -0.023916
                               270                  286               0.020510
                               270                  284               0.019514
                               266                  282              -0.018025
                               272                  283               0.017893
                               267                  283               0.017530
                               265                  281              -0.017491
                               269                  285               0.017318
                               271                  281               0.015854
                               277                  292              -0.015586
                               278                  294               0.012468
                               266                  283               0.011192
                               267                  282               0.010732
                               257                  290              -0.010608
                               258                  289              -0.010553
                               275                  290              -0.010523
                               272                  282               0.010509
                               273                  285               0.010285
            13   6.00391 eV
                               277                  281              -0.663215
                               278                  283              -0.421051
                               279                  282              -0.320243
                               280                  284               0.299209
                               278                  282              -0.273438
                               279                  283               0.190281
                               278                  281              -0.169209
                               277                  283              -0.130367
                               279                  284               0.105587
                               277                  282              -0.088766
                               280                  282              -0.073337
                               280                  283               0.048189
                               276                  284               0.041933
                               274                  282               0.037482
                               275                  283              -0.024574
                               274                  283              -0.021439
                               271                  282               0.019848
                               272                  284              -0.017618
                               275                  282              -0.016340
                               275                  281              -0.014458
                               276                  282              -0.013971
                               269                  281              -0.013527
                               277                  284               0.012542
                               273                  281              -0.012331
                               271                  283              -0.011549
            14   6.00869 eV
                               277                  283               0.548610
                               277                  282               0.481632
                               279                  284              -0.419770
                               278                  281               0.385902
                               280                  282               0.218913
                               277                  281              -0.156157
                               278                  283              -0.138466
                               278                  284              -0.099513
                               280                  284               0.086597
                               279                  282              -0.085798
                               280                  283              -0.075307
                               278                  282              -0.071310
                               279                  281               0.065773
                               279                  283               0.047320
                               276                  282               0.044574
                               274                  284               0.038788
                               275                  281               0.038469
                               271                  284               0.031397
                               276                  283              -0.019257
                               276                  284               0.013627
                               272                  282              -0.012038
                               274                  282               0.010654
                               275                  283              -0.010386
            15   6.01032 eV
                               278                  284               0.558880
                               277                  282              -0.481213
                               277                  283               0.452531
                               279                  281              -0.331979
                               280                  283              -0.253926
                               277                  284               0.138564
                               278                  282              -0.119775
                               280                  282              -0.111792
                               279                  284              -0.076550
                               280                  281              -0.073484
                               278                  281               0.066978
                               274                  281               0.047443
                               278                  283               0.047369
                               279                  282              -0.046824
                               279                  283              -0.039003
                               276                  283              -0.036148
                               275                  284               0.035123
                               271                  281               0.022559
                               277                  281              -0.021279
                               272                  283               0.021252
                               280                  284               0.014618
                               280                  288              -0.014555
                               275                  282              -0.013718
                               273                  282              -0.013543
                               276                  282              -0.012090
                               276                  281              -0.011826
                               279                  287               0.011220
                               272                  282               0.010779
            16   6.01651 eV
                               277                  284              -0.778971
                               278                  282               0.326975
                               279                  283               0.325560
                               278                  283              -0.222981
                               280                  281               0.207055
                               279                  282               0.190346
                               278                  284               0.121613
                               277                  282              -0.101355
                               277                  283               0.085614
                               280                  283              -0.062377
                               279                  281              -0.056096
                               275                  282               0.046814
                               274                  283              -0.046336
                               276                  281               0.036046
                               275                  283              -0.031829
                               271                  283              -0.031030
                               280                  282              -0.029861
                               274                  282              -0.028561
                               271                  282              -0.018516
                               280                  287              -0.015180
                               279                  284              -0.013607
                               272                  281              -0.012536
                               277                  281              -0.012188
                               270                  285              -0.012036
                               280                  284               0.010627
                               275                  284               0.010129
            17   6.13286 eV
                               276                  281              -0.830241
                               274                  283              -0.377586
                               274                  282              -0.246610
                               275                  282               0.224155
                               275                  283              -0.150530
                               276                  283               0.067199
                               272                  281               0.060499
                               277                  284               0.059832
                               278                  282               0.047053
                               279                  283               0.045710
                               269                  284               0.042958
                               273                  284               0.040042
                               274                  281              -0.035162
                               270                  282               0.030673
                               278                  283              -0.029861
                               279                  282               0.029117
                               271                  283               0.027485
                               276                  282               0.023366
                               270                  283              -0.018980
                               274                  288               0.018212
                               271                  282               0.017777
                               280                  281              -0.017760
                               274                  302               0.017351
                               273                  303               0.016582
                               265                  283               0.015601
                               267                  281              -0.015323
                               267                  301               0.014215
                               268                  282               0.013688
                               275                  304              -0.013632
                               277                  286              -0.013575
                               276                  299              -0.012411
                               273                  286               0.012055
                               266                  294               0.011867
                               277                  303              -0.011736
                               266                  284              -0.011526
                               265                  302               0.011309
                               262                  281              -0.011259
                               274                  298               0.010577
                               275                  292               0.010555
                               268                  304               0.010387
                               275                  281              -0.010310
                               266                  303               0.010203
            18   6.14248 eV
                               274                  281               0.651790
                               276                  283               0.603855
                               276                  282               0.396862
                               269                  282               0.089359
                               278                  284               0.076390
                               275                  284               0.072273
                               277                  282               0.063347
                               269                  283              -0.054744
                               279                  281              -0.050211
                               280                  283               0.044399
                               276                  281               0.043914
                               273                  282               0.043752
                               272                  283              -0.040849
                               277                  283              -0.039989
                               271                  281               0.033723
                               265                  281              -0.029190
                               273                  283              -0.028469
                               280                  282               0.028320
                               272                  282              -0.026779
                               274                  283              -0.026263
                               277                  285              -0.026183
                               270                  284               0.022140
                               268                  284               0.021335
                               278                  286              -0.018756
                               267                  283               0.017247
                               266                  282              -0.017004
                               279                  287               0.016549
                               274                  287               0.013900
                               265                  301               0.013355
                               276                  288              -0.012913
                               274                  299               0.012855
                               273                  304              -0.012719
                               275                  281               0.012654
                               267                  302               0.012275
                               268                  303              -0.011967
                               257                  284               0.011910
                               264                  281               0.011595
                               276                  302              -0.011385
                               275                  303               0.011128
                               276                  298              -0.011042
                               261                  281              -0.011042
                               267                  282               0.010949
                               273                  292               0.010832
                               266                  283               0.010542
                               280                  288               0.010462
                               276                  284              -0.010457
                               276                  289              -0.010299
                               263                  282              -0.010249
                               262                  283               0.010005
            19   6.14908 eV
                               276                  284              -0.707922
                               274                  282               0.496507
                               274                  283              -0.303963
                               275                  283              -0.276075
                               273                  281               0.177659
                               275                  282              -0.153088
                               272                  284               0.072827
                               269                  281               0.065718
                               277                  281               0.043460
                               278                  283              -0.040810
                               270                  283              -0.031684
                               267                  284              -0.027323
                               265                  282              -0.025191
                               266                  281              -0.025052
                               278                  282              -0.024676
                               268                  283              -0.022899
                               274                  285               0.021936
                               274                  284               0.020601
                               279                  282              -0.020573
[...]
 flops   109 x   162 x    32          18081792000       0.0%    100.0%      0.0%
 flops    69 x   160 x    32          18087936000       0.0%    100.0%      0.0%
 flops    97 x   161 x    32          19190169600       0.0%    100.0%      0.0%
 flops   109 x    24 x    75          19482660000       0.0%    100.0%      0.0%
 flops   109 x    24 x    80          20781504000       0.0%    100.0%      0.0%
 flops    80 x   160 x    32          20971520000       0.0%    100.0%      0.0%
 flops    85 x   160 x    32          22282240000       0.0%    100.0%      0.0%
 flops   115 x   161 x    32          22751232000       0.0%    100.0%      0.0%
 flops   120 x   161 x    32          23740416000       0.0%    100.0%      0.0%
 flops    69 x    32 x    86          24320855040       0.0%    100.0%      0.0%
 flops    97 x   160 x    32          25427968000       0.0%    100.0%      0.0%
 flops    69 x    32 x    75          26310528000       0.0%    100.0%      0.0%
 flops    69 x    32 x    80          28064563200       0.0%    100.0%      0.0%
 flops    80 x    32 x    86          28198092800       0.0%    100.0%      0.0%
 flops    75 x   161 x    32          29675520000       0.0%    100.0%      0.0%
 flops    85 x    32 x    86          29960473600       0.0%    100.0%      0.0%
 flops   115 x   160 x    32          30146560000       0.0%    100.0%      0.0%
 flops    80 x    32 x    75          30504960000       0.0%    100.0%      0.0%
 flops   120 x   160 x    32          31457280000       0.0%    100.0%      0.0%
 flops    85 x    32 x    75          32411520000       0.0%    100.0%      0.0%
 flops    80 x    32 x    80          32538624000       0.0%    100.0%      0.0%
 flops    86 x   161 x    32          34027929600       0.0%    100.0%      0.0%
 flops    97 x    32 x    86          34190187520       0.0%    100.0%      0.0%
 flops    85 x    32 x    80          34572288000       0.0%    100.0%      0.0%
 flops    97 x    32 x    75          36987264000       0.0%    100.0%      0.0%
 flops     6 x    17 x     6          37351544832       0.0%    100.0%      0.0%
 flops    17 x     6 x     6          37514801952       0.0%    100.0%      0.0%
 flops     6 x     6 x    17          37858398336       0.0%    100.0%      0.0%
 flops    75 x   160 x    32          39321600000       0.0%    100.0%      0.0%
 flops    97 x    32 x    80          39453081600       0.0%    100.0%      0.0%
 flops   115 x    32 x    86          40534758400       0.0%    100.0%      0.0%
 flops   120 x    32 x    86          42297139200       0.0%    100.0%      0.0%
 flops   115 x    32 x    75          43850880000       0.0%    100.0%      0.0%
 flops    86 x   160 x    32          45088768000       0.0%    100.0%      0.0%
 flops   120 x    32 x    75          45757440000       0.0%    100.0%      0.0%
 flops   115 x    32 x    80          46774272000       0.0%    100.0%      0.0%
 flops    17 x    17 x    32          47753416704       0.0%    100.0%      0.0%
 flops   120 x    32 x    80          48807936000       0.0%    100.0%      0.0%
 flops    75 x    32 x    86          52871424000       0.0%    100.0%      0.0%
 flops     6 x    24 x    17          56517543936       0.0%    100.0%      0.0%
 flops    17 x    24 x     6          56517543936       0.0%    100.0%      0.0%
 flops    75 x    32 x    75          57196800000       0.0%    100.0%      0.0%
 flops    86 x    32 x    86          60625899520       0.0%    100.0%      0.0%
 flops    75 x    32 x    80          61009920000       0.0%    100.0%      0.0%
 flops   103 x   161 x    32          61131571200       0.0%    100.0%      0.0%
 flops    86 x    32 x    75          65585664000       0.0%    100.0%      0.0%
 flops    86 x    32 x    80          69958041600       0.0%    100.0%      0.0%
 flops   103 x   160 x    32          81002496000       0.0%    100.0%      0.0%
 flops   109 x   161 x    32         107821056000       0.0%    100.0%      0.0%
 flops   103 x    32 x    86         108915133440       0.0%    100.0%      0.0%
 flops   103 x    32 x    75         117825408000       0.0%    100.0%      0.0%
 flops   103 x    32 x    80         125680435200       0.0%    100.0%      0.0%
 flops   109 x   160 x    32         142868480000       0.0%    100.0%      0.0%
 flops    17 x    17 x     6         143043403008       0.0%    100.0%      0.0%
 flops     6 x    17 x    17         144018521376       0.0%    100.0%      0.0%
 flops    17 x     6 x    17         144470706960       0.0%    100.0%      0.0%
 flops     6 x    32 x     6         161724874752       0.0%    100.0%      0.0%
 flops   109 x    32 x    86         192099507200       0.0%    100.0%      0.0%
 flops   109 x    32 x    75         207815040000       0.0%    100.0%      0.0%
 flops    17 x    24 x    17         213510721536       0.0%    100.0%      0.0%
 flops   109 x    32 x    80         221669376000       0.0%    100.0%      0.0%
 flops    17 x    17 x    17         549125931392       0.0%    100.0%      0.0%
 flops    17 x    32 x     6         610960637952       0.0%    100.0%      0.0%
 flops     6 x    32 x    17         610960637952       0.0%    100.0%      0.0%
 flops    17 x    32 x    17        2308073521152       0.0%    100.0%      0.0%
 flops inhomo. stacks               5397364194864     100.0%      0.0%      0.0%
 flops total                        13.877039E+12      38.9%     61.1%      0.0%
 flops max/rank                    283.956342E+09      41.9%     58.1%      0.0%
 matmuls inhomo. stacks                   6408468     100.0%      0.0%      0.0%
 matmuls total                          769437952       0.8%     99.2%      0.0%
 number of processed stacks              48538518      13.2%     86.8%      0.0%
 average stack size                                     1.0      18.1       0.0
 marketing flops                    12.239023E+12
 -------------------------------------------------------------------------------
 # multiplications                           8000
 max memory usage/rank             782.888960E+06
 # max total images/rank                        5
 # max 3D layers                                1
 # MPI messages exchanged                38160000
 MPI messages size (bytes):
  total size                         2.479013E+12
  min size                           0.000000E+00
  max size                         360.288000E+03
  average size                      64.963652E+03
 MPI breakdown and total messages size (bytes):
             size <=      128            22572267                   274576
       128 < size <=     8192              830459               2821152192
      8192 < size <=    32768             4634658              92857572416
     32768 < size <=   131072             1216568              88695708128
    131072 < size <=  4194304             8906048            2294711575008
   4194304 < size <= 16777216                   0                        0
  16777216 < size                               0                        0
 -------------------------------------------------------------------------------

 *** WARNING in dbcsr_mm.F:291 :: Using a non-square number of MPI ranks ***
 *** might lead to poor performance. Used ranks: 90 Suggested: 81 169    ***

 -------------------------------------------------------------------------------
 -                                                                             -
 -                      DBCSR MESSAGE PASSING PERFORMANCE                      -
 -                                                                             -
 -------------------------------------------------------------------------------
 ROUTINE             CALLS      AVE VOLUME [Bytes]
 MP_Bcast              332                     12.
 MP_Allreduce        38255                     10.
 MP_Alltoall         89881                  48939.
 MP_ISend           905772                  32892.
 MP_IRecv           908994                  32376.
 -------------------------------------------------------------------------------

 -------------------------------------------------------------------------------
 -                                                                             -
 -                                DBM STATISTICS                               -
 -                                                                             -
 -------------------------------------------------------------------------------
    M  x    N  x    K                                          COUNT     PERCENT
 -------------------------------------------------------------------------------

 -------------------------------------------------------------------------------
 -                                                                             -
 -                                GRID STATISTICS                              -
 -                                                                             -
 -------------------------------------------------------------------------------
 LP    KERNEL             BACKEND                              COUNT     PERCENT
 3     collocate general  CPU                                5936940      12.63%
 3     integrate general  CPU                                5732900      12.20%
 4     collocate general  CPU                                5266490      11.21%
 4     integrate general  CPU                                5066100      10.78%
 1     collocate general  CPU                                4947740      10.53%
 1     integrate general  CPU                                4946900      10.53%
 2     collocate general  CPU                                3888304       8.27%
 2     integrate general  CPU                                3837650       8.17%
 0     collocate general  CPU                                3695440       7.86%
 0     integrate general  CPU                                3677800       7.83%
 -------------------------------------------------------------------------------

 MEMORY| Estimated peak process memory [MiB]                                 772

 -------------------------------------------------------------------------------
 -                                                                             -
 -                         MESSAGE PASSING PERFORMANCE                         -
 -                                                                             -
 -------------------------------------------------------------------------------

 ROUTINE             CALLS      AVE VOLUME [Bytes]
 MP_Group                6
 MP_Bcast             3046                3052149.
 MP_Allreduce        72529                    242.
 MP_Sync               249
 MP_Alltoall          4554                1202426.
 MP_SendRecv          9434                  12000.
 MP_ISendRecv        13528                 107509.
 MP_Wait             41446
 MP_comm_split         116
 MP_ISend            19544                  57997.
 MP_IRecv            24174                  46882.
 MP_Write_All            2                  71100.
 -------------------------------------------------------------------------------


 -------------------------------------------------------------------------------
 -                                                                             -
 -                           R E F E R E N C E S                               -
 -                                                                             -
 -------------------------------------------------------------------------------
 
 CP2K version 2023.2, the CP2K developers group (2023).
 CP2K is freely available from https://www.cp2k.org/ .

 Kuehne,Thomas D.; Iannuzzi,Marcella; Del Ben,Mauro;
 Rybkin,Vladimir V.; Seewald,Patrick; Stein,Frederick; Laino,Teodoro;
 Khaliullin,Rustam Z.; Schuett,Ole; Schiffmann,Florian; Golze,Dorothea;
 Wilhelm,Jan; Chulkov,Sergey; Bani-Hashemian,Mohammad Hossein;
 Weber,Valery; Borstnik,Urban; Taillefumier,Mathieu;
 Jakobovits,Alice Shoshana; Lazzaro,Alfio; Pabst,Hans; Mueller,Tiziano;
 Schade,Robert; Guidon,Manuel; Andermatt,Samuel; Holmberg,Nico;
 Schenter,Gregory K.; Hehn,Anna; Bussy,Augustin; Belleflamme,Fabian;
 Tabacchi,Gloria; Gloess,Andreas; Lass,Michael; Bethune,Iain;
 Mundy,Christopher J.; Plessl,Christian; Watkins,Matt;
 VandeVondele,Joost; Krack,Matthias; Hutter,Juerg. 
 The Journal of Chemical Physics, 152 (19), (2020). 
 CP2K: An electronic structure and molecular dynamics software package -
 Quickstep: Efficient and accurate electronic structure calculations.
 https://doi.org/10.1063/5.0007045

 Lehtola, S; Steigemann, C; Oliveira, MJT; Marques, MAL. 
 SoftwareX, 7, 1-5 (2018). 
 Recent developments in libxc - A comprehensive library of functionals
 for density functional theory.
 https://doi.org/10.1016/j.softx.2017.11.002

 Grimme, S; Bannwarth, C. 
 The Journal of Chemical Physics, 145, 054103 (2016). 
 Ultra-fast computation of electronic spectra for large systems
 by tight-binding based simplified Tamm-Dancoff approximation (sTDA-xTB).
 https://doi.org/10.1063/1.4959605

 Schuett, Ole; Messmer, Peter; Hutter, Juerg; VandeVondele, Joost. 
 Electronic Structure Calculations on Graphics Processing Units, John
 Wiley & Sons, Ltd, 173-190 (2016). 
 GPU-Accelerated Sparse Matrix-Matrix Multiplication for
 Linear Scaling Density Functional Theory.
 https://doi.org/10.1002/9781118670712.ch8

 Heinecke, A; Henry, G; Hutchinson, M; Pabst, H. 
 Proceedings of Intl. Supercomputing Conference, 981-991 (2016). 
 LIBXSMM: Accelerating Small Matrix Multiplications
 by Runtime Code Generation.
 https://doi.org/10.1109/SC.2016.83

 Borstnik, U; VandeVondele, J; Weber, V; Hutter, J. 
 PARALLEL COMPUTING, 40 (5-6), 47-58 (2014). 
 Sparse matrix multiplication: The distributed block-compressed sparse
 row library.
 https://doi.org/10.1016/j.parco.2014.03.012

 Hutter, J; Iannuzzi, M; Schiffmann, F; VandeVondele, J. 
 WIREs Comput Mol Sci., 4 (1), 15-25 (2014). 
 CP2K: atomistic simulations of condensed matter systems.
 https://doi.org/10.1002/wcms.1159

 Sabatini, R; Gorni, T; de Gironcoli, S. 
 Phys. Rev. B, 87 (4), 041108(R) (2013). 
 Nonlocal van der Waals density functional made simple and efficient.
 https://doi.org/10.1103/PhysRevB.87.041108

 Grimme, S. The Journal of Chemical Physics, 138, 244104 (2013). 
 A simplified Tamm-Dancoff density functional approach for
 the electronic excitation spectra of very large molecules.
 https://doi.org/10.1063/1.4811331

 Marques, MAL; Oliveira, MJT; Burnus, T. 
 COMPUTER PHYSICS COMMUNICATIONS, 183 (10), 2272-2281 (2012). 
 LIBXC: A library of exchange and correlation functionals for density
 functional theory.
 https://doi.org/10.1016/j.cpc.2012.05.007

 Guidon, M; Hutter, J; VandeVondele, J. 
 JOURNAL OF CHEMICAL THEORY AND COMPUTATION, 6 (8), 2348-2364 (2010). 
 Auxiliary Density Matrix Methods for Hartree-Fock Exchange Calculations.
 https://doi.org/10.1021/ct1002225

 Guidon, M; Hutter, J; VandeVondele, J. 
 JOURNAL OF CHEMICAL THEORY AND COMPUTATION, 5 (11), 3010-3021 (2009). 
 Robust Periodic Hartree-Fock Exchange for Large-Scale Simulations Using
 Gaussian Basis Sets.
 https://doi.org/10.1021/ct900494g

 Roman-Perez, G; Soler, JM. 
 Phys. Rev. Lett., 103 (9), 096102 (2009). 
 Efficient Implementation of a van der Waals Density Functional:
 Application to Double-Wall Carbon Nanotubes.
 https://doi.org/10.1103/PhysRevLett.103.096102

 Guidon, M; Schiffmann, F; Hutter, J; VandeVondele, J. 
 JOURNAL OF CHEMICAL PHYSICS, 128 (21), 214104 (2008). 
 Ab initio molecular dynamics using hybrid density functionals.
 https://doi.org/10.1063/1.2931945

 VandeVondele, J; Hutter, J. 
 JOURNAL OF CHEMICAL PHYSICS, 127 (11), 114105 (2007). 
 Gaussian basis sets for accurate calculations on molecular systems in
 gas and condensed phases.
 https://doi.org/10.1063/1.2770708

 Krack, M. 
 THEORETICAL CHEMISTRY ACCOUNTS, 114 (1-3), 145-152 (2005). 
 Pseudopotentials for H to Kr optimized for gradient-corrected
 exchange-correlation functionals.
 https://doi.org/10.1007/s00214-005-0655-y

 VandeVondele, J; Krack, M; Mohamed, F; Parrinello, M; Chassaing, T;
 Hutter, J. COMPUTER PHYSICS COMMUNICATIONS, 167 (2), 103-128 (2005). 
 QUICKSTEP: Fast and accurate density functional calculations using a
 mixed Gaussian and plane waves approach.
 https://doi.org/10.1016/j.cpc.2004.12.014

 Frigo, M; Johnson, SG. 
 PROCEEDINGS OF THE IEEE, 93 (2), 216-231 (2005). 
 The design and implementation of FFTW3.
 https://doi.org/10.1109/JPROC.2004.840301

 Iannuzzi, M; Chassaing, T; Wallman, T; Hutter, J. 
 CHIMIA, 59 (7-8), 499-503 (2005). 
 Ground and excited state density functional calculations with the
 Gaussian and augmented-plane-wave method.
 https://doi.org/10.2533/000942905777676164

 VandeVondele, J; Hutter, J. 
 JOURNAL OF CHEMICAL PHYSICS, 118 (10), 4365-4369 (2003). 
 An efficient orbital transformation method for electronic structure
 calculations.
 https://doi.org/10.1063/1.1543154

 Hartwigsen, C; Goedecker, S; Hutter, J. 
 PHYSICAL REVIEW B, 58 (7), 3641-3662 (1998). 
 Relativistic separable dual-space Gaussian pseudopotentials from H to Rn.
 https://doi.org/10.1103/PhysRevB.58.3641

 Lippert, G; Hutter, J; Parrinello, M. 
 MOLECULAR PHYSICS, 92 (3), 477-487 (1997). 
 A hybrid Gaussian and plane wave density functional scheme.
 https://doi.org/10.1080/002689797170220

 Perdew, JP; Burke, K; Ernzerhof, M. 
 PHYSICAL REVIEW LETTERS, 77 (18), 3865-3868 (1996). 
 Generalized gradient approximation made simple.
 https://doi.org/10.1103/PhysRevLett.77.3865

 Goedecker, S; Teter, M; Hutter, J. 
 PHYSICAL REVIEW B, 54 (3), 1703-1710 (1996). 
 Separable dual-space Gaussian pseudopotentials.
 https://doi.org/10.1103/PhysRevB.54.1703


 -------------------------------------------------------------------------------
 -                                                                             -
 -                                T I M I N G                                  -
 -                                                                             -
 -------------------------------------------------------------------------------
 SUBROUTINE                       CALLS  ASD         SELF TIME        TOTAL TIME
                                MAXIMUM       AVERAGE  MAXIMUM  AVERAGE  MAXIMUM
 CP2K                                 1  1.0    0.050    0.108 5769.480 5769.512
 qs_energies                          1  2.0    0.000    0.002 5768.385 5768.417
 scf_env_do_scf                       1  3.0    0.000    0.001 5663.676 5663.708
 qs_ks_update_qs_env                 27  5.0    0.000    0.001 5647.049 5647.093
 rebuild_ks_matrix                   25  6.0    0.000    0.000 5647.030 5647.072
 qs_ks_build_kohn_sham_matrix        25  7.0    0.005    0.010 5647.030 5647.072
 hfx_ks_matrix                       25  8.0    0.001    0.004 5617.085 5617.171
 integrate_four_center               25  9.0    2.378    2.519 5617.066 5617.145
 integrate_four_center_main          25 10.0   16.017   35.628 5507.756 5589.511
 integrate_four_center_bin         1608 11.0 5491.739 5567.843 5491.739 5567.843
 scf_env_do_scf_inner_loop           25  4.0    0.001    0.007 5193.972 5194.002
 init_scf_loop                        2  4.0    0.000    0.000  469.684  469.690
 mp_sync                            249 10.9   90.767  158.353   90.767  158.353
 -------------------------------------------------------------------------------

 The number of warnings for this run is : 1
 
 -------------------------------------------------------------------------------
  **** **** ******  **  PROGRAM ENDED AT                 2024-01-04 19:38:27.401
 ***** ** ***  *** **   PROGRAM RAN ON                              f7dffac303b2
 **    ****   ******    PROGRAM RAN BY                                 <unknown>
 ***** **    ** ** **   PROGRAM PROCESS ID                                   538
  **** **  *******  **  PROGRAM STOPPED IN                                  /mnt
