     Program PWSCF v.7.2 starts on 22Feb2024 at 19:12:38

     This program is part of the open-source Quantum ESPRESSO suite
     for quantum simulation of materials; please cite
         "P. Giannozzi et al., J. Phys.:Condens. Matter 21 395502 (2009);
         "P. Giannozzi et al., J. Phys.:Condens. Matter 29 465901 (2017);
         "P. Giannozzi et al., J. Chem. Phys. 152 154105 (2020);
          URL http://www.quantum-espresso.org",
     in publications or presentations arising from this work. More details at
     http://www.quantum-espresso.org/quote

     Parallel version (MPI), running on   170 processors

     MPI processes distributed on     1 nodes
     1402754 MiB available memory on the printing compute node when the environment starts

     Reading input from 4amp15_scf.in

     Current dimensions of program PWSCF are:
     Max number of different atomic species (ntypx) = 10
     Max number of k-points (npk) =  40000
     Max angular momentum in pseudopotentials (lmaxx) =  4

     Reading input from environ.in:
     * using electronic solvent mode
     * setting boundary derivatives method to SCCS default


     IMPORTANT: XC functional enforced from input :
     Exchange-correlation= PBE
                           (   1   4   3   4   0   0   0)
     Any further DFT definition will be discarded
     Please, verify this is what you really want


     gamma-point specific algorithms are used
     Message from routine setup:
     using ibrav=0 with symmetry is DISCOURAGED, use correct ibrav instead

     R & G space division:  proc/nbgrp/npool/nimage =     170
     Subspace diagonalization in iterative solution of the eigenvalue problem:
     one sub-group per band group will be used
     custom distributed-memory algorithm (size of sub-group:  3*  3 procs)


     Parallelization info
     --------------------
     sticks:   dense  smooth     PW     G-vecs:    dense   smooth      PW
     Min          91      36      8                17648     4458     536
     Max          94      38     10                17698     4494     590
     Sum       15643    6271   1569              3006229   760417   95069

     Using Slab Decomposition



     bravais-lattice index     =            0
     lattice parameter (alat)  =      30.7969  a.u.
     unit-cell volume          =   12112.4072 (a.u.)^3
     number of atoms/cell      =          196
     number of atomic types    =            4
     number of electrons       =       560.00
     number of Kohn-Sham states=          285
     kinetic-energy cutoff     =      60.0000  Ry
     charge density cutoff     =     600.0000  Ry
     scf convergence threshold =      1.0E-08
     mixing beta               =       0.7000
     number of iterations used =            8  local-TF  mixing
     Exchange-correlation= PBE
                           (   1   4   3   4   0   0   0)

     ================================================================================

                                  Environ Setup Summary

     ================================================================================

     Please cite

          O. Andreussi, I. Dabo and N. Marzari, J. Chem. Phys. 136, 064102 (2012)

     in publications or presentations arising from this work.

     ================================================================================

     Parameters
     ==========

     compensation onset threshold      =               0.1000E+01
     static permittivity               =                    36.71
     surface tension in input (dyn/cm) =                    46.30
     surface tension in internal units =               0.5948E-04
     external pressure in input (GPa)  =                    -0.50
     external pressure in inter. units =              -0.3399E-04

     Solvent Boundary
     ================

     solvent mode                      =               electronic
     derivatives method                =                    chain
     numerical core for derivatives    =                      fft
     switching function adopted        =                     SCCS
     density limit for vacuum region   =               0.5000E-02
     density limit for bulk solvent    =               0.1000E-03

     Electrostatic Setup
     ===================

     electrostatic problem to solve    =              generalized
     numerical solver adopted          =                       cg
     type of auxiliary density adopted =                     none
     numerical core for poisson        =                      fft

     ================================================================================


     celldm(1)=  30.796867  celldm(2)=   0.000000  celldm(3)=   0.000000
     celldm(4)=   0.000000  celldm(5)=   0.000000  celldm(6)=   0.000000

     crystal axes: (cart. coord. in units of alat)
               a(1) = (   1.000000   0.000000   0.000000 )
               a(2) = (   0.000000   0.345487   0.000000 )
               a(3) = (  -0.937552   0.000000   1.200271 )

     reciprocal axes: (cart. coord. in units 2 pi/alat)
               b(1) = (  1.000000 -0.000000  0.781117 )
               b(2) = (  0.000000  2.894466 -0.000000 )
               b(3) = (  0.000000  0.000000  0.833145 )


     PseudoPot. # 1 for O  read from file:
     /home/cyk/q-e-qe-7.2/pp/O.pbe-n-rrkjus_psl.1.0.0.UPF
     MD5 check sum: 91400c9766925bcf19f520983a725ff0
     Pseudo is Ultrasoft + core correction, Zval =  6.0
     Generated using &quot;atomic&quot; code by A. Dal Corso  v.6.3MaX
     Using radial grid of 1095 points,  4 beta functions with:
                l(1) =   0
                l(2) =   0
                l(3) =   1
                l(4) =   1
     Q(r) pseudized with 0 coefficients


     PseudoPot. # 2 for N  read from file:
     /home/cyk/q-e-qe-7.2/pp/N.pbe-n-rrkjus_psl.1.0.0.UPF
     MD5 check sum: ada94e3ed05223de5319d0572dc76806
     Pseudo is Ultrasoft + core correction, Zval =  5.0
     Generated using &quot;atomic&quot; code by A. Dal Corso  v.6.3MaX
     Using radial grid of 1085 points,  4 beta functions with:
                l(1) =   0
                l(2) =   0
                l(3) =   1
                l(4) =   1
     Q(r) pseudized with 0 coefficients


     PseudoPot. # 3 for C  read from file:
     /home/cyk/q-e-qe-7.2/pp/C.pbe-n-rrkjus_psl.1.0.0.UPF
     MD5 check sum: 1fdd950c42eb37d8afe3dd2f8d12311e
     Pseudo is Ultrasoft + core correction, Zval =  4.0
     Generated using &quot;atomic&quot; code by A. Dal Corso  v.6.3MaX
     Using radial grid of 1073 points,  4 beta functions with:
                l(1) =   0
                l(2) =   0
                l(3) =   1
                l(4) =   1
     Q(r) pseudized with 0 coefficients


     PseudoPot. # 4 for H  read from file:
     /home/cyk/q-e-qe-7.2/pp/H.pbe-rrkjus_psl.1.0.0.UPF
     MD5 check sum: 3f4114867bd07edc7f1424d066fc1888
     Pseudo is Ultrasoft, Zval =  1.0
     Generated using &quot;atomic&quot; code by A. Dal Corso  v.6.3MaX
     Using radial grid of  929 points,  2 beta functions with:
                l(1) =   0
                l(2) =   0
     Q(r) pseudized with 0 coefficients


     atomic species   valence    mass     pseudopotential
        O              6.00    16.00000     O ( 1.00)
        N              5.00    14.00000     N ( 1.00)
        C              4.00    12.00000     C ( 1.00)
        H              1.00     1.00000     H ( 1.00)

      4 Sym. Ops., with inversion, found ( 2 have fractional translation)



   Cartesian axes

     site n.     atom                  positions (alat units)
         1           O   tau(   1) = (  -0.2751453   0.2415101   0.5692312  )
         2           O   tau(   2) = (   0.0014414   0.2511390   0.6661831  )
         3           O   tau(   3) = (   0.2247087   0.3251298   0.7398863  )
         4           N   tau(   4) = (  -0.4479405   0.1705926   0.7909552  )
         5           C   tau(   5) = (  -0.1075373   0.0941773   0.7992948  )
         6           H   tau(   6) = (  -0.1348353   0.1452375   0.8324977  )
         7           C   tau(   7) = (  -0.0556786   0.0401597   0.8391592  )
         8           H   tau(   8) = (  -0.0406830   0.0483733   0.9038295  )
         9           C   tau(   9) = (  -0.0185900   0.3199536   0.7978070  )
        10           H   tau(  10) = (   0.0247393   0.2811423   0.8302422  )
        11           C   tau(  11) = (  -0.0356913   0.3077911   0.7147629  )
        12           C   tau(  12) = (  -0.0924337   0.0136678   0.6748679  )
        13           H   tau(  13) = (  -0.1051472   0.0039734   0.6101224  )
        14           C   tau(  14) = (  -0.1261515   0.0816625   0.7151450  )
        15           C   tau(  15) = (  -0.1765821   0.1366780   0.6674890  )
        16           H   tau(  16) = (  -0.1863270   0.1202000   0.6033442  )
        17           C   tau(  17) = (  -0.2116301   0.2065085   0.6955204  )
        18           H   tau(  18) = (  -0.2032641   0.2240545   0.7591870  )
        19           C   tau(  19) = (  -0.2663178   0.2560216   0.6439136  )
        20           C   tau(  20) = (  -0.3118948   0.3238088   0.6835055  )
        21           C   tau(  21) = (  -0.3626520   0.0280200   0.6346678  )
        22           H   tau(  22) = (  -0.3661622   0.0146525   0.5693108  )
        23           C   tau(  23) = (  -0.4078728   0.0910564   0.6689442  )
        24           H   tau(  24) = (  -0.4472212   0.1287432   0.6304923  )
        25           C   tau(  25) = (  -0.4033641   0.1075914   0.7537204  )
        26           C   tau(  26) = (  -0.3509267   0.0594061   0.8024246  )
        27           H   tau(  27) = (  -0.3461242   0.0723673   0.8677168  )
        28           C   tau(  28) = (  -0.3073307   0.3407869   0.7682007  )
        29           H   tau(  29) = (  -0.2687617   0.3040026   0.8082350  )
        30           C   tau(  30) = (  -0.5223366   0.1831206   0.7668352  )
        31           H   tau(  31) = (  -0.5522512   0.1422029   0.7221148  )
        32           C   tau(  32) = (  -0.5723246   0.2516059   0.7946272  )
        33           C   tau(  33) = (   0.3496442   0.2584191   0.7595663  )
        34           H   tau(  34) = (   0.3291415   0.2119895   0.7160088  )
        35           C   tau(  35) = (   0.2993057   0.3246926   0.7787176  )
        36           C   tau(  36) = (   0.3253864   0.0386818   0.8345941  )
        37           H   tau(  37) = (   0.2868770   0.0903078   0.8516730  )
        38           C   tau(  38) = (  -0.5961213   0.0314526   0.8695930  )
        39           H   tau(  39) = (  -0.5761703   0.0782608   0.9129361  )
        40           C   tau(  40) = (  -0.5448006   0.3120119   0.8501240  )
        41           H   tau(  41) = (  -0.4837844   0.3069065   0.8765518  )
        42           C   tau(  42) = (   0.0627193   0.2015250   0.7047986  )
        43           H   tau(  43) = (   0.0868614   0.1623096   0.6563231  )
        44           H   tau(  44) = (   0.0349408   0.1641949   0.7539082  )
        45           H   tau(  45) = (   0.1122557   0.2395760   0.7299904  )
        46           C   tau(  46) = (   0.1752525   0.0514316   0.7494784  )
        47           H   tau(  47) = (   0.1213159   0.0415886   0.7109176  )
        48           H   tau(  48) = (   0.2087301   0.1062603   0.7282475  )
        49           H   tau(  49) = (   0.1555022   0.0595636   0.8133882  )
        50           O   tau(  50) = (   0.8063692   0.0687667   0.0309043  )
        51           O   tau(  51) = (  -0.4077694   0.0783955   1.1342233  )
        52           O   tau(  52) = (  -0.6310367   0.1523864   1.0605201  )
        53           N   tau(  53) = (   0.0416125   0.3433361   1.0094512  )
        54           C   tau(  54) = (  -0.2987907   0.2669208   1.0011116  )
        55           H   tau(  55) = (  -0.2714927   0.3179809   0.9679087  )
        56           C   tau(  56) = (  -0.3506494   0.2129031   0.9612471  )
        57           H   tau(  57) = (  -0.3656450   0.2211167   0.8965768  )
        58           C   tau(  58) = (  -0.3877380   0.1472101   1.0025994  )
        59           H   tau(  59) = (  -0.4310673   0.1083989   0.9701641  )
        60           C   tau(  60) = (  -0.3706367   0.1350477   1.0856435  )
        61           C   tau(  61) = (  -0.3138943   0.1864113   1.1255384  )
        62           H   tau(  62) = (  -0.3011808   0.1767169   1.1902840  )
        63           C   tau(  63) = (  -0.2801765   0.2544059   1.0852614  )
        64           C   tau(  64) = (  -0.2297459   0.3094215   1.1329174  )
        65           H   tau(  65) = (  -0.2200011   0.2929435   1.1970622  )
        66           C   tau(  66) = (  -0.1946979   0.0337650   1.1048859  )
        67           H   tau(  67) = (  -0.2030639   0.0513111   1.0412194  )
        68           C   tau(  68) = (  -0.1400102   0.0832781   1.1564927  )
        69           C   tau(  69) = (  -0.0944332   0.1510654   1.1169009  )
        70           C   tau(  70) = (  -0.0436760   0.2007634   1.1657386  )
        71           H   tau(  71) = (   0.8973862   0.1873960   0.0308246  )
        72           C   tau(  72) = (   0.0015448   0.2637999   1.1314621  )
        73           H   tau(  73) = (   0.0408931   0.3014867   1.1699140  )
        74           C   tau(  74) = (  -0.0029639   0.2803349   1.0466859  )
        75           C   tau(  75) = (  -0.0554013   0.2321495   0.9979818  )
        76           H   tau(  76) = (  -0.0602038   0.2451108   0.9326896  )
        77           C   tau(  77) = (  -0.0989973   0.1680434   1.0322057  )
        78           H   tau(  78) = (  -0.1375663   0.1312591   0.9921714  )
        79           C   tau(  79) = (   0.1160086   0.0103771   1.0335712  )
        80           H   tau(  80) = (   0.1459232   0.3149463   1.0782915  )
        81           C   tau(  81) = (   0.1659966   0.0788625   1.0057791  )
        82           C   tau(  82) = (  -0.7559722   0.0856757   1.0408401  )
        83           H   tau(  83) = (  -0.7354695   0.0392461   1.0843976  )
        84           C   tau(  84) = (  -0.7056337   0.1519492   1.0216888  )
        85           C   tau(  85) = (  -0.7317144   0.2114252   0.9658123  )
        86           H   tau(  86) = (  -0.6932050   0.2630512   0.9487334  )
        87           C   tau(  87) = (   0.1897933   0.2041960   0.9308134  )
        88           H   tau(  88) = (   0.1698423   0.2510042   0.8874702  )
        89           C   tau(  89) = (   0.1384726   0.1392685   0.9502824  )
        90           H   tau(  90) = (   0.0774564   0.1341630   0.9238545  )
        91           C   tau(  91) = (  -0.4690473   0.0287816   1.0956078  )
        92           H   tau(  92) = (  -0.4931894  -0.0104339   1.1440833  )
        93           H   tau(  93) = (  -0.4412688  -0.0085485   1.0464982  )
        94           H   tau(  94) = (  -0.5185837   0.0668326   1.0704160  )
        95           C   tau(  95) = (  -0.5815805   0.2241750   1.0509280  )
        96           H   tau(  96) = (  -0.5276439   0.2143320   1.0894888  )
        97           H   tau(  97) = (  -0.6150581   0.2790038   1.0721589  )
        98           H   tau(  98) = (  -0.5618303   0.2323071   0.9870182  )
        99           O   tau(  99) = (   0.3375932   0.1039768   0.6310397  )
       100           O   tau( 100) = (   0.0610066   0.0943479   0.5340878  )
       101           O   tau( 101) = (  -0.1622607   0.0203571   0.4603847  )
       102           N   tau( 102) = (   0.5103885   0.1748943   0.4093158  )
       103           C   tau( 103) = (   0.1699853   0.2513096   0.4009762  )
       104           H   tau( 104) = (   0.1972833   0.2002494   0.3677732  )
       105           C   tau( 105) = (   0.1181266   0.3053272   0.3611117  )
       106           H   tau( 106) = (   0.1031310   0.2971136   0.2964414  )
       107           C   tau( 107) = (   0.0810380   0.0255333   0.4024639  )
       108           H   tau( 108) = (   0.0377087   0.0643446   0.3700287  )
       109           C   tau( 109) = (   0.0981393   0.0376958   0.4855080  )
       110           C   tau( 110) = (   0.1548817   0.3318191   0.5254030  )
       111           H   tau( 111) = (   0.1675952   0.3415134   0.5901486  )
       112           C   tau( 112) = (   0.1885995   0.2638244   0.4851259  )
       113           C   tau( 113) = (   0.2390301   0.2088089   0.5327819  )
       114           H   tau( 114) = (   0.2487749   0.2252869   0.5969267  )
       115           C   tau( 115) = (   0.2740781   0.1389784   0.5047505  )
       116           H   tau( 116) = (   0.2657121   0.1214324   0.4410840  )
       117           C   tau( 117) = (   0.3287658   0.0894653   0.5563573  )
       118           C   tau( 118) = (   0.3743428   0.0216781   0.5167654  )
       119           C   tau( 119) = (   0.4251000   0.3174669   0.5656031  )
       120           H   tau( 120) = (   0.4286102   0.3308344   0.6309601  )
       121           C   tau( 121) = (   0.4703208   0.2544305   0.5313267  )
       122           H   tau( 122) = (   0.5096692   0.2167437   0.5697786  )
       123           C   tau( 123) = (   0.4658121   0.2378955   0.4465505  )
       124           C   tau( 124) = (   0.4133747   0.2860808   0.3978463  )
       125           H   tau( 125) = (   0.4085722   0.2731195   0.3325541  )
       126           C   tau( 126) = (   0.3697787   0.0047000   0.4320702  )
       127           H   tau( 127) = (   0.3312097   0.0414843   0.3920359  )
       128           C   tau( 128) = (   0.5847846   0.1623663   0.4334357  )
       129           H   tau( 129) = (   0.6146992   0.2032840   0.4781561  )
       130           C   tau( 130) = (   0.6347726   0.0938810   0.4056437  )
       131           C   tau( 131) = (  -0.2871962   0.0870678   0.4407046  )
       132           H   tau( 132) = (  -0.2666935   0.1334974   0.4842621  )
       133           C   tau( 133) = (  -0.2368577   0.0207943   0.4215533  )
       134           C   tau( 134) = (  -0.2629384   0.3068051   0.3656768  )
       135           H   tau( 135) = (  -0.2244290   0.2551791   0.3485979  )
       136           C   tau( 136) = (   0.6585693   0.3140343   0.3306779  )
       137           H   tau( 137) = (   0.6386183   0.2672261   0.2873348  )
       138           C   tau( 138) = (   0.6072486   0.0334750   0.3501469  )
       139           H   tau( 139) = (   0.5462324   0.0385804   0.3237191  )
       140           C   tau( 140) = (  -0.0002713   0.1439619   0.4954723  )
       141           H   tau( 141) = (  -0.0244134   0.1831773   0.5439479  )
       142           H   tau( 142) = (   0.0275072   0.1812920   0.4463628  )
       143           H   tau( 143) = (  -0.0498077   0.1059109   0.4702805  )
       144           C   tau( 144) = (  -0.1128045   0.2940553   0.4507925  )
       145           H   tau( 145) = (  -0.0588679   0.3038983   0.4893533  )
       146           H   tau( 146) = (  -0.1462821   0.2392266   0.4720234  )
       147           H   tau( 147) = (  -0.0930543   0.2859233   0.3868827  )
       148           O   tau( 148) = (  -0.7439213   0.2767202   1.1693666  )
       149           O   tau( 149) = (   0.4702174   0.2670914   0.0660476  )
       150           O   tau( 150) = (   0.6934847   0.1931005   0.1397508  )
       151           N   tau( 151) = (   0.0208355   0.0021508   0.1908197  )
       152           C   tau( 152) = (   0.3612387   0.0785661   0.1991593  )
       153           H   tau( 153) = (   0.3339407   0.0275060   0.2323622  )
       154           C   tau( 154) = (   0.4130974   0.1325838   0.2390238  )
       155           H   tau( 155) = (   0.4280930   0.1243701   0.3036941  )
       156           C   tau( 156) = (   0.4501860   0.1982768   0.1976715  )
       157           H   tau( 157) = (   0.4935153   0.2370880   0.2301068  )
       158           C   tau( 158) = (   0.4330847   0.2104392   0.1146274  )
       159           C   tau( 159) = (   0.3763423   0.1590756   0.0747325  )
       160           H   tau( 160) = (   0.3636288   0.1687700   0.0099869  )
       161           C   tau( 161) = (   0.3426245   0.0910810   0.1150095  )
       162           C   tau( 162) = (   0.2921939   0.0360654   0.0673535  )
       163           H   tau( 163) = (   0.2824491   0.0525434   0.0032087  )
       164           C   tau( 164) = (   0.2571459   0.3117219   0.0953850  )
       165           H   tau( 165) = (   0.2655119   0.2941758   0.1590515  )
       166           C   tau( 166) = (   0.2024582   0.2622088   0.0437782  )
       167           C   tau( 167) = (   0.1568812   0.1944215   0.0833701  )
       168           C   tau( 168) = (   0.1061240   0.1447235   0.0345323  )
       169           H   tau( 169) = (  -0.8349382   0.1580909   1.1694463  )
       170           C   tau( 170) = (   0.0609032   0.0816870   0.0688088  )
       171           H   tau( 171) = (   0.0215548   0.0440002   0.0303569  )
       172           C   tau( 172) = (   0.0654119   0.0651520   0.1535850  )
       173           C   tau( 173) = (   0.1178493   0.1133374   0.2022891  )
       174           H   tau( 174) = (   0.1226518   0.1003761   0.2675813  )
       175           C   tau( 175) = (   0.1614453   0.1774435   0.1680652  )
       176           H   tau( 176) = (   0.2000143   0.2142278   0.2080995  )
       177           C   tau( 177) = (  -0.0535606   0.3351098   0.1666997  )
       178           H   tau( 178) = (  -0.0834752   0.0305406   0.1219794  )
       179           C   tau( 179) = (  -0.1035486   0.2666244   0.1944918  )
       180           C   tau( 180) = (   0.8184202   0.2598112   0.1594309  )
       181           H   tau( 181) = (   0.7979175   0.3062408   0.1158733  )
       182           C   tau( 182) = (   0.7680817   0.1935377   0.1785821  )
       183           C   tau( 183) = (   0.7941624   0.1340617   0.2344586  )
       184           H   tau( 184) = (   0.7556530   0.0824357   0.2515375  )
       185           C   tau( 185) = (  -0.1273453   0.1412909   0.2694575  )
       186           H   tau( 186) = (  -0.1073943   0.0944827   0.3128007  )
       187           C   tau( 187) = (  -0.0760246   0.2062184   0.2499885  )
       188           H   tau( 188) = (  -0.0150084   0.2113239   0.2764164  )
       189           C   tau( 189) = (   0.5314953   0.3167053   0.1046632  )
       190           H   tau( 190) = (   0.5556374   0.3559208   0.0561876  )
       191           H   tau( 191) = (   0.5037168   0.3540354   0.1537727  )
       192           H   tau( 192) = (   0.5810317   0.2786543   0.1298549  )
       193           C   tau( 193) = (   0.6440285   0.1213119   0.1493429  )
       194           H   tau( 194) = (   0.5900919   0.1311549   0.1107821  )
       195           H   tau( 195) = (   0.6775061   0.0664831   0.1281120  )
       196           H   tau( 196) = (   0.6242782   0.1131798   0.2132527  )

     --------------------------------------------
     DFT-D3 Dispersion Correction (3-body terms):
     --------------------------------------------
       Reference C6 values for interpolation:

         atom   Coordination number   C6
         H          0.912             6.05
         H          0.000            15.18
         C          0.000            98.23
         C          0.987            86.49
         C          1.998            58.72
         C          2.999            51.56
         C          3.984            36.41
         N          0.000            50.54
         N          0.994            44.25
         N          2.014            39.35
         N          2.990            31.16
         O          0.000            31.01
         O          0.993            25.63
         O          1.989            20.74

       Values used:

         atom   Coordination number  R0_AB[au]  C6      C8
         O          1.075            2.345     25.50    514.56
         O          2.055            2.345     20.79    419.58
         O          2.054            2.345     20.79    419.59
         N          2.142            2.478     38.89    857.89
         C          3.169            2.750     50.37   1456.66
         H          1.006            2.062      6.18     74.65
         C          3.145            2.750     50.58   1462.75
         H          1.007            2.062      6.17     74.64
         C          3.163            2.750     50.43   1458.46
         H          1.007            2.062      6.17     74.64
         C          3.218            2.750     49.84   1441.58
         C          3.222            2.750     49.80   1440.30
         H          1.007            2.062      6.17     74.64
         C          3.185            2.750     50.21   1452.30
         C          3.154            2.750     50.50   1460.50
         H          1.008            2.062      6.17     74.63
         C          3.129            2.750     50.70   1466.22
         H          1.009            2.062      6.17     74.63
         C          3.135            2.750     50.65   1464.79
         C          3.201            2.750     50.05   1447.49
         C          3.185            2.750     50.22   1452.31
         H          1.008            2.062      6.17     74.64
         C          3.178            2.750     50.29   1454.36
         H          1.007            2.062      6.17     74.64
         C          3.250            2.750     49.42   1429.20
         C          3.180            2.750     50.27   1453.80
         H          1.007            2.062      6.17     74.64
         C          3.179            2.750     50.27   1453.95
         H          1.007            2.062      6.17     74.64
         C          3.212            2.750     49.92   1443.72
         H          1.006            2.062      6.18     74.65
         C          3.192            2.750     50.15   1450.29
         C          3.223            2.750     49.78   1439.80
         H          1.007            2.062      6.17     74.64
         C          3.215            2.750     49.89   1442.84
         C          3.163            2.750     50.43   1458.39
         H          1.008            2.062      6.17     74.64
         C          3.150            2.750     50.54   1461.61
         H          1.006            2.062      6.18     74.65
         C          3.169            2.750     50.37   1456.85
         H          1.007            2.062      6.18     74.65
         C          4.074            2.750     36.55   1057.00
         H          1.001            2.062      6.18     74.71
         H          0.999            2.062      6.18     74.73
         H          0.999            2.062      6.18     74.73
         C          4.064            2.750     36.56   1057.31
         H          1.000            2.062      6.18     74.72
         H          0.998            2.062      6.18     74.74
         H          0.999            2.062      6.18     74.73
         O          1.075            2.345     25.50    514.56
         O          2.055            2.345     20.79    419.58
         O          2.054            2.345     20.79    419.59
         N          2.142            2.478     38.89    857.89
         C          3.169            2.750     50.37   1456.66
         H          1.006            2.062      6.18     74.65
         C          3.145            2.750     50.58   1462.75
         H          1.007            2.062      6.17     74.64
         C          3.163            2.750     50.43   1458.46
         H          1.007            2.062      6.17     74.64
         C          3.218            2.750     49.84   1441.58
         C          3.222            2.750     49.80   1440.30
         H          1.007            2.062      6.17     74.64
         C          3.185            2.750     50.21   1452.30
         C          3.154            2.750     50.50   1460.50
         H          1.008            2.062      6.17     74.63
         C          3.129            2.750     50.70   1466.22
         H          1.009            2.062      6.17     74.63
         C          3.135            2.750     50.65   1464.79
         C          3.201            2.750     50.05   1447.49
         C          3.185            2.750     50.22   1452.31
         H          1.008            2.062      6.17     74.64
         C          3.178            2.750     50.29   1454.36
         H          1.007            2.062      6.17     74.64
         C          3.250            2.750     49.42   1429.20
         C          3.180            2.750     50.27   1453.80
         H          1.007            2.062      6.17     74.64
         C          3.179            2.750     50.27   1453.95
         H          1.007            2.062      6.17     74.64
         C          3.212            2.750     49.92   1443.72
         H          1.006            2.062      6.18     74.65
         C          3.192            2.750     50.15   1450.29
         C          3.223            2.750     49.78   1439.80
         H          1.007            2.062      6.17     74.64
         C          3.215            2.750     49.89   1442.84
         C          3.163            2.750     50.43   1458.39
         H          1.008            2.062      6.17     74.64
         C          3.150            2.750     50.54   1461.61
         H          1.006            2.062      6.18     74.65
         C          3.169            2.750     50.37   1456.85
         H          1.007            2.062      6.18     74.65
         C          4.074            2.750     36.55   1057.00
         H          1.001            2.062      6.18     74.71
         H          0.999            2.062      6.18     74.73
         H          0.999            2.062      6.18     74.73
         C          4.064            2.750     36.56   1057.31
         H          1.000            2.062      6.18     74.72
         H          0.998            2.062      6.18     74.74
         H          0.999            2.062      6.18     74.73
         O          1.075            2.345     25.50    514.56
         O          2.055            2.345     20.79    419.58
         O          2.054            2.345     20.79    419.59
         N          2.142            2.478     38.89    857.89
         C          3.169            2.750     50.37   1456.66
         H          1.006            2.062      6.18     74.65
         C          3.145            2.750     50.58   1462.75
         H          1.007            2.062      6.17     74.64
         C          3.163            2.750     50.43   1458.46
         H          1.007            2.062      6.17     74.64
         C          3.218            2.750     49.84   1441.58
         C          3.222            2.750     49.80   1440.30
         H          1.007            2.062      6.17     74.64
         C          3.185            2.750     50.21   1452.30
         C          3.154            2.750     50.50   1460.50
         H          1.008            2.062      6.17     74.63
         C          3.129            2.750     50.70   1466.22
         H          1.009            2.062      6.17     74.63
         C          3.135            2.750     50.65   1464.79
         C          3.201            2.750     50.05   1447.49
         C          3.185            2.750     50.22   1452.31
         H          1.008            2.062      6.17     74.64
         C          3.178            2.750     50.29   1454.36
         H          1.007            2.062      6.17     74.64
         C          3.250            2.750     49.42   1429.20
         C          3.180            2.750     50.27   1453.80
         H          1.007            2.062      6.17     74.64
         C          3.179            2.750     50.27   1453.95
         H          1.007            2.062      6.17     74.64
         C          3.212            2.750     49.92   1443.72
         H          1.006            2.062      6.18     74.65
         C          3.192            2.750     50.15   1450.29
         C          3.223            2.750     49.78   1439.80
         H          1.007            2.062      6.17     74.64
         C          3.215            2.750     49.89   1442.84
         C          3.163            2.750     50.43   1458.39
         H          1.008            2.062      6.17     74.64
         C          3.150            2.750     50.54   1461.61
         H          1.006            2.062      6.18     74.65
         C          3.169            2.750     50.37   1456.85
         H          1.007            2.062      6.18     74.65
         C          4.074            2.750     36.55   1057.00
         H          1.001            2.062      6.18     74.71
         H          0.999            2.062      6.18     74.73
         H          0.999            2.062      6.18     74.73
         C          4.064            2.750     36.56   1057.31
         H          1.000            2.062      6.18     74.72
         H          0.998            2.062      6.18     74.74
         H          0.999            2.062      6.18     74.73
         O          1.075            2.345     25.50    514.56
         O          2.055            2.345     20.79    419.58
         O          2.054            2.345     20.79    419.59
         N          2.142            2.478     38.89    857.89
         C          3.169            2.750     50.37   1456.66
         H          1.006            2.062      6.18     74.65
         C          3.145            2.750     50.58   1462.75
         H          1.007            2.062      6.17     74.64
         C          3.163            2.750     50.43   1458.46
         H          1.007            2.062      6.17     74.64
         C          3.218            2.750     49.84   1441.58
         C          3.222            2.750     49.80   1440.30
         H          1.007            2.062      6.17     74.64
         C          3.185            2.750     50.21   1452.30
         C          3.154            2.750     50.50   1460.50
         H          1.008            2.062      6.17     74.63
         C          3.129            2.750     50.70   1466.22
         H          1.009            2.062      6.17     74.63
         C          3.135            2.750     50.65   1464.79
         C          3.201            2.750     50.05   1447.49
         C          3.185            2.750     50.22   1452.31
         H          1.008            2.062      6.17     74.64
         C          3.178            2.750     50.29   1454.36
         H          1.007            2.062      6.17     74.64
         C          3.250            2.750     49.42   1429.20
         C          3.180            2.750     50.27   1453.80
         H          1.007            2.062      6.17     74.64
         C          3.179            2.750     50.27   1453.95
         H          1.007            2.062      6.17     74.64
         C          3.212            2.750     49.92   1443.72
         H          1.006            2.062      6.18     74.65
         C          3.192            2.750     50.15   1450.29
         C          3.223            2.750     49.78   1439.80
         H          1.007            2.062      6.17     74.64
         C          3.215            2.750     49.89   1442.84
         C          3.163            2.750     50.43   1458.39
         H          1.008            2.062      6.17     74.64
         C          3.150            2.750     50.54   1461.61
         H          1.006            2.062      6.18     74.65
         C          3.169            2.750     50.37   1456.85
         H          1.007            2.062      6.18     74.65
         C          4.074            2.750     36.55   1057.00
         H          1.001            2.062      6.18     74.71
         H          0.999            2.062      6.18     74.73
         H          0.999            2.062      6.18     74.73
         C          4.064            2.750     36.56   1057.31
         H          1.000            2.062      6.18     74.72
         H          0.998            2.062      6.18     74.74
         H          0.999            2.062      6.18     74.73

         Molecular C6 ( Ry / a.u.^6 ) =    922035.72


     number of k points=     1
                       cart. coord. in units 2pi/alat
        k(    1) = (   0.0000000   0.0000000   0.0000000), wk =   2.0000000

     Dense  grid:  1503115 G-vectors     FFT dimensions: ( 243,  90, 384)

     Smooth grid:   380209 G-vectors     FFT dimensions: ( 160,  54, 240)

     Estimated max dynamical RAM per process >      35.68 MB

     Estimated total dynamical RAM >       5.92 GB

     Check: negative core charge=   -0.000001

     Initial potential from superposition of free atoms

     starting charge     559.9952, renormalised to     560.0000
     Starting wfcs are  532 randomized atomic wfcs

     total cpu time spent up to now is        3.9 secs

     Self-consistent Calculation

     iteration #  1     ecut=    60.00 Ry     beta= 0.70
     Davidson diagonalization with overlap
     ethr =  1.00E-02,  avg # of iterations =  2.0

     total cpu time spent up to now is        5.7 secs

     total energy              =   -1763.06034185 Ry
     estimated scf accuracy    <      18.69990668 Ry
     electrostatic embedding   =       0.00000000 Ry
     cavitation energy         =       0.00345480 Ry
     PV energy                 =      -0.41082633 Ry
     correction to one-el term =      -0.00000000 Ry

     iteration #  2     ecut=    60.00 Ry     beta= 0.70
     Davidson diagonalization with overlap
     ethr =  3.34E-03,  avg # of iterations =  2.0

     total cpu time spent up to now is        6.6 secs

     total energy              =   -1761.92929443 Ry
     estimated scf accuracy    <       4.74597060 Ry
     electrostatic embedding   =       0.00000000 Ry
     cavitation energy         =       0.00258375 Ry
     PV energy                 =      -0.41103179 Ry
     correction to one-el term =      -0.00000000 Ry

     iteration #  3     ecut=    60.00 Ry     beta= 0.70
     Davidson diagonalization with overlap
     ethr =  8.47E-04,  avg # of iterations =  4.0

     add environment contribution to local potential
     Polarization accuracy = 4.5E-26, # of iterations =  21

     total cpu time spent up to now is        8.2 secs

     total energy              =   -1763.06887733 Ry
     estimated scf accuracy    <       0.74979754 Ry
     electrostatic embedding   =       0.00000000 Ry
     cavitation energy         =       0.00612156 Ry
     PV energy                 =      -0.41006552 Ry
     correction to one-el term =      -0.00000000 Ry

     iteration #  4     ecut=    60.00 Ry     beta= 0.70
     Davidson diagonalization with overlap
     ethr =  1.34E-04,  avg # of iterations =  3.0

     add environment contribution to local potential
     Polarization accuracy = 4.3E-26, # of iterations =  34

     total cpu time spent up to now is        9.5 secs

     total energy              =   -1763.02627594 Ry
     estimated scf accuracy    <       0.27804362 Ry
     electrostatic embedding   =      -0.00541360 Ry
     cavitation energy         =       0.00980964 Ry
     PV energy                 =      -0.40907584 Ry
     correction to one-el term =      -0.01082384 Ry

     iteration #  5     ecut=    60.00 Ry     beta= 0.70
     Davidson diagonalization with overlap
     ethr =  4.97E-05,  avg # of iterations =  6.0

     add environment contribution to local potential
     Polarization accuracy = 8.3E-26, # of iterations =  35

     total cpu time spent up to now is       11.5 secs

     total energy              =   -1763.09938740 Ry
     estimated scf accuracy    <       0.20944239 Ry
     electrostatic embedding   =      -0.01127784 Ry
     cavitation energy         =       0.02068425 Ry
     PV energy                 =      -0.40611554 Ry
     correction to one-el term =       0.02522050 Ry

     iteration #  6     ecut=    60.00 Ry     beta= 0.70
     Davidson diagonalization with overlap
     ethr =  3.74E-05,  avg # of iterations =  4.0

     add environment contribution to local potential
     Polarization accuracy = 1.8E-26, # of iterations =  44

     total cpu time spent up to now is       12.8 secs

     total energy              =   -1763.08534178 Ry
     estimated scf accuracy    <       0.05222440 Ry
     electrostatic embedding   =      -0.01191460 Ry
     cavitation energy         =       0.02156250 Ry
     PV energy                 =      -0.40586384 Ry
     correction to one-el term =       0.03137241 Ry

     iteration #  7     ecut=    60.00 Ry     beta= 0.70
     Davidson diagonalization with overlap
     ethr =  9.33E-06,  avg # of iterations =  7.0

     add environment contribution to local potential
     Polarization accuracy = 8.5E-26, # of iterations =  45

     total cpu time spent up to now is       15.1 secs

     total energy              =   -1763.13361609 Ry
     estimated scf accuracy    <       0.10421182 Ry
     electrostatic embedding   =      -0.01476513 Ry
     cavitation energy         =       0.02627149 Ry
     PV energy                 =      -0.40456400 Ry
     correction to one-el term =       0.06141507 Ry

     iteration #  8     ecut=    60.00 Ry     beta= 0.70
     Davidson diagonalization with overlap
     ethr =  9.33E-06,  avg # of iterations =  1.0

     add environment contribution to local potential
     Polarization accuracy = 9.1E-26, # of iterations =  49

     total cpu time spent up to now is       16.3 secs

     total energy              =   -1763.11568570 Ry
     estimated scf accuracy    <       0.07436256 Ry
     electrostatic embedding   =      -0.01561557 Ry
     cavitation energy         =       0.02758821 Ry
     PV energy                 =      -0.40418959 Ry
     correction to one-el term =       0.07062372 Ry

     iteration #  9     ecut=    60.00 Ry     beta= 0.70
     Davidson diagonalization with overlap
     ethr =  9.33E-06,  avg # of iterations =  4.0

     add environment contribution to local potential
     Polarization accuracy = 7.3E-26, # of iterations =  50

     total cpu time spent up to now is       17.7 secs

     total energy              =   -1763.11339105 Ry
     estimated scf accuracy    <       0.02340754 Ry
     electrostatic embedding   =      -0.01637451 Ry
     cavitation energy         =       0.02881156 Ry
     PV energy                 =      -0.40383321 Ry
     correction to one-el term =       0.08120415 Ry

     iteration # 10     ecut=    60.00 Ry     beta= 0.70
     Davidson diagonalization with overlap
     ethr =  4.18E-06,  avg # of iterations =  5.0

     add environment contribution to local potential
     Polarization accuracy = 8.0E-26, # of iterations =  50

     total cpu time spent up to now is       19.5 secs

     total energy              =   -1763.12116056 Ry
     estimated scf accuracy    <       0.00178047 Ry
     electrostatic embedding   =      -0.01657161 Ry
     cavitation energy         =       0.02897709 Ry
     PV energy                 =      -0.40377097 Ry
     correction to one-el term =       0.08380981 Ry

     iteration # 11     ecut=    60.00 Ry     beta= 0.70
     Davidson diagonalization with overlap
     ethr =  3.18E-07,  avg # of iterations =  5.0

     add environment contribution to local potential
     Polarization accuracy = 7.1E-26, # of iterations =  50

     total cpu time spent up to now is       21.2 secs

     total energy              =   -1763.12140642 Ry
     estimated scf accuracy    <       0.00124778 Ry
     electrostatic embedding   =      -0.01675801 Ry
     cavitation energy         =       0.02897286 Ry
     PV energy                 =      -0.40375565 Ry
     correction to one-el term =       0.08631805 Ry

     iteration # 12     ecut=    60.00 Ry     beta= 0.70
     Davidson diagonalization with overlap
     ethr =  2.23E-07,  avg # of iterations =  2.0

     add environment contribution to local potential
     Polarization accuracy = 2.6E-26, # of iterations =  50

     total cpu time spent up to now is       22.5 secs

     total energy              =   -1763.12120229 Ry
     estimated scf accuracy    <       0.00065257 Ry
     electrostatic embedding   =      -0.01688100 Ry
     cavitation energy         =       0.02896727 Ry
     PV energy                 =      -0.40374829 Ry
     correction to one-el term =       0.08847008 Ry

     iteration # 13     ecut=    60.00 Ry     beta= 0.70
     Davidson diagonalization with overlap
     ethr =  1.17E-07,  avg # of iterations =  5.0

     add environment contribution to local potential
     Polarization accuracy = 6.3E-26, # of iterations =  49

     total cpu time spent up to now is       24.3 secs

     total energy              =   -1763.12133491 Ry
     estimated scf accuracy    <       0.00022098 Ry
     electrostatic embedding   =      -0.01689832 Ry
     cavitation energy         =       0.02885261 Ry
     PV energy                 =      -0.40377808 Ry
     correction to one-el term =       0.08849091 Ry

     iteration # 14     ecut=    60.00 Ry     beta= 0.70
     Davidson diagonalization with overlap
     ethr =  3.95E-08,  avg # of iterations =  5.0

     add environment contribution to local potential
     Polarization accuracy = 3.3E-26, # of iterations =  49

     total cpu time spent up to now is       25.9 secs

     total energy              =   -1763.12134222 Ry
     estimated scf accuracy    <       0.00006360 Ry
     electrostatic embedding   =      -0.01677497 Ry
     cavitation energy         =       0.02875153 Ry
     PV energy                 =      -0.40381279 Ry
     correction to one-el term =       0.08707141 Ry

     iteration # 15     ecut=    60.00 Ry     beta= 0.70
     Davidson diagonalization with overlap
     ethr =  1.14E-08,  avg # of iterations =  2.0

     add environment contribution to local potential
     Polarization accuracy = 4.9E-26, # of iterations =  48

     total cpu time spent up to now is       27.2 secs

     total energy              =   -1763.12133058 Ry
     estimated scf accuracy    <       0.00002719 Ry
     electrostatic embedding   =      -0.01670573 Ry
     cavitation energy         =       0.02870518 Ry
     PV energy                 =      -0.40383053 Ry
     correction to one-el term =       0.08636466 Ry

     iteration # 16     ecut=    60.00 Ry     beta= 0.70
     Davidson diagonalization with overlap
     ethr =  4.86E-09,  avg # of iterations =  7.0

     add environment contribution to local potential
     Polarization accuracy = 9.5E-26, # of iterations =  48

     total cpu time spent up to now is       28.9 secs

     total energy              =   -1763.12132456 Ry
     estimated scf accuracy    <       0.00001295 Ry
     electrostatic embedding   =      -0.01664839 Ry
     cavitation energy         =       0.02868880 Ry
     PV energy                 =      -0.40383909 Ry
     correction to one-el term =       0.08603011 Ry

     iteration # 17     ecut=    60.00 Ry     beta= 0.70
     Davidson diagonalization with overlap
     ethr =  2.31E-09,  avg # of iterations =  4.0

     add environment contribution to local potential
     Polarization accuracy = 4.1E-26, # of iterations =  48

     total cpu time spent up to now is       30.6 secs

     total energy              =   -1763.12142737 Ry
     estimated scf accuracy    <       0.00000375 Ry
     electrostatic embedding   =      -0.01666109 Ry
     cavitation energy         =       0.02872619 Ry
     PV energy                 =      -0.40382850 Ry
     correction to one-el term =       0.08701950 Ry

     iteration # 18     ecut=    60.00 Ry     beta= 0.70
     Davidson diagonalization with overlap
     ethr =  6.69E-10,  avg # of iterations =  6.0

     add environment contribution to local potential
     Polarization accuracy = 5.8E-26, # of iterations =  48

     total cpu time spent up to now is       32.4 secs

     total energy              =   -1763.12136237 Ry
     estimated scf accuracy    <       0.00000246 Ry
     electrostatic embedding   =      -0.01665577 Ry
     cavitation energy         =       0.02872068 Ry
     PV energy                 =      -0.40383025 Ry
     correction to one-el term =       0.08649817 Ry

     iteration # 19     ecut=    60.00 Ry     beta= 0.70
     Davidson diagonalization with overlap
     ethr =  4.38E-10,  avg # of iterations =  7.0

     add environment contribution to local potential
     Polarization accuracy = 7.1E-26, # of iterations =  47

     total cpu time spent up to now is       34.1 secs

     total energy              =   -1763.12134989 Ry
     estimated scf accuracy    <       0.00000234 Ry
     electrostatic embedding   =      -0.01666039 Ry
     cavitation energy         =       0.02872821 Ry
     PV energy                 =      -0.40382796 Ry
     correction to one-el term =       0.08738574 Ry

     iteration # 20     ecut=    60.00 Ry     beta= 0.70
     Davidson diagonalization with overlap
     ethr =  4.17E-10,  avg # of iterations =  9.0

     add environment contribution to local potential
     Polarization accuracy = 8.2E-26, # of iterations =  47

     total cpu time spent up to now is       36.0 secs

     total energy              =   -1763.12237890 Ry
     estimated scf accuracy    <       0.00003316 Ry
     electrostatic embedding   =      -0.01665991 Ry
     cavitation energy         =       0.02872780 Ry
     PV energy                 =      -0.40382810 Ry
     correction to one-el term =       0.08939349 Ry

     iteration # 21     ecut=    60.00 Ry     beta= 0.70
     Davidson diagonalization with overlap
     ethr =  4.17E-10,  avg # of iterations = 12.0

     add environment contribution to local potential
     Polarization accuracy = 4.2E-26, # of iterations =  47

     total cpu time spent up to now is       38.1 secs

     total energy              =   -1763.12131457 Ry
     estimated scf accuracy    <       0.00000064 Ry
     electrostatic embedding   =      -0.01666619 Ry
     cavitation energy         =       0.02873469 Ry
     PV energy                 =      -0.40382576 Ry
     correction to one-el term =       0.08646064 Ry

     iteration # 22     ecut=    60.00 Ry     beta= 0.70
     Davidson diagonalization with overlap
     ethr =  1.14E-10,  avg # of iterations =  6.0

     add environment contribution to local potential
     Polarization accuracy = 2.7E-26, # of iterations =  47

     total cpu time spent up to now is       39.9 secs

     total energy              =   -1763.12132081 Ry
     estimated scf accuracy    <       0.00000067 Ry
     electrostatic embedding   =      -0.01667079 Ry
     cavitation energy         =       0.02873573 Ry
     PV energy                 =      -0.40382502 Ry
     correction to one-el term =       0.08645861 Ry

     iteration # 23     ecut=    60.00 Ry     beta= 0.70
     Davidson diagonalization with overlap
     ethr =  1.14E-10,  avg # of iterations =  4.0

     add environment contribution to local potential
     Polarization accuracy = 5.2E-26, # of iterations =  47

     total cpu time spent up to now is       41.4 secs

     total energy              =   -1763.12132864 Ry
     estimated scf accuracy    <       0.00000090 Ry
     electrostatic embedding   =      -0.01667519 Ry
     cavitation energy         =       0.02873636 Ry
     PV energy                 =      -0.40382443 Ry
     correction to one-el term =       0.08658707 Ry

     iteration # 24     ecut=    60.00 Ry     beta= 0.70
     Davidson diagonalization with overlap
     ethr =  1.14E-10,  avg # of iterations =  6.0

     add environment contribution to local potential
     Polarization accuracy = 5.9E-26, # of iterations =  47

     total cpu time spent up to now is       43.1 secs

     total energy              =   -1763.12134357 Ry
     estimated scf accuracy    <       0.00000125 Ry
     electrostatic embedding   =      -0.01667646 Ry
     cavitation energy         =       0.02873669 Ry
     PV energy                 =      -0.40382422 Ry
     correction to one-el term =       0.08696615 Ry

     iteration # 25     ecut=    60.00 Ry     beta= 0.70
     Davidson diagonalization with overlap
     ethr =  1.14E-10,  avg # of iterations =  3.0

     add environment contribution to local potential
     Polarization accuracy = 9.6E-26, # of iterations =  47

     total cpu time spent up to now is       44.5 secs

     total energy              =   -1763.12132391 Ry
     estimated scf accuracy    <       0.00000090 Ry
     electrostatic embedding   =      -0.01667516 Ry
     cavitation energy         =       0.02873682 Ry
     PV energy                 =      -0.40382428 Ry
     correction to one-el term =       0.08696773 Ry

     iteration # 26     ecut=    60.00 Ry     beta= 0.70
     Davidson diagonalization with overlap
     ethr =  1.14E-10,  avg # of iterations =  6.0

     add environment contribution to local potential
     Polarization accuracy = 9.1E-26, # of iterations =  47

     total cpu time spent up to now is       46.2 secs

     total energy              =   -1763.12139161 Ry
     estimated scf accuracy    <       0.00000219 Ry
     electrostatic embedding   =      -0.01667469 Ry
     cavitation energy         =       0.02873688 Ry
     PV energy                 =      -0.40382429 Ry
     correction to one-el term =       0.08710033 Ry

     iteration # 27     ecut=    60.00 Ry     beta= 0.70
     Davidson diagonalization with overlap
     ethr =  1.14E-10,  avg # of iterations =  6.0

     add environment contribution to local potential
     Polarization accuracy = 3.3E-26, # of iterations =  47

     total cpu time spent up to now is       48.0 secs

     total energy              =   -1763.12134105 Ry
     estimated scf accuracy    <       0.00000113 Ry
     electrostatic embedding   =      -0.01667507 Ry
     cavitation energy         =       0.02873717 Ry
     PV energy                 =      -0.40382419 Ry
     correction to one-el term =       0.08623331 Ry

     iteration # 28     ecut=    60.00 Ry     beta= 0.70
     Davidson diagonalization with overlap
     ethr =  1.14E-10,  avg # of iterations =  6.0

     add environment contribution to local potential
     Polarization accuracy = 3.0E-26, # of iterations =  47

     total cpu time spent up to now is       49.7 secs

     total energy              =   -1763.12138849 Ry
     estimated scf accuracy    <       0.00000178 Ry
     electrostatic embedding   =      -0.01667410 Ry
     cavitation energy         =       0.02873661 Ry
     PV energy                 =      -0.40382441 Ry
     correction to one-el term =       0.08668502 Ry

     iteration # 29     ecut=    60.00 Ry     beta= 0.70
     Davidson diagonalization with overlap
     ethr =  1.14E-10,  avg # of iterations =  6.0

     add environment contribution to local potential
     Polarization accuracy = 4.1E-26, # of iterations =  47

     total cpu time spent up to now is       51.5 secs

     total energy              =   -1763.12130556 Ry
     estimated scf accuracy    <       0.00000029 Ry
     electrostatic embedding   =      -0.01667299 Ry
     cavitation energy         =       0.02873599 Ry
     PV energy                 =      -0.40382465 Ry
     correction to one-el term =       0.08705400 Ry

     iteration # 30     ecut=    60.00 Ry     beta= 0.70
     Davidson diagonalization with overlap
     ethr =  5.18E-11,  avg # of iterations =  6.0

     add environment contribution to local potential
     Polarization accuracy = 2.5E-26, # of iterations =  47

     total cpu time spent up to now is       53.4 secs

     total energy              =   -1763.12149145 Ry
     estimated scf accuracy    <       0.00000407 Ry
     electrostatic embedding   =      -0.01667335 Ry
     cavitation energy         =       0.02873630 Ry
     PV energy                 =      -0.40382454 Ry
     correction to one-el term =       0.08723796 Ry

     iteration # 31     ecut=    60.00 Ry     beta= 0.70
     Davidson diagonalization with overlap
     ethr =  5.18E-11,  avg # of iterations =  6.0

     add environment contribution to local potential
     Polarization accuracy = 4.6E-26, # of iterations =  46

     total cpu time spent up to now is       55.2 secs

     total energy              =   -1763.12133779 Ry
     estimated scf accuracy    <       0.00000078 Ry
     electrostatic embedding   =      -0.01667345 Ry
     cavitation energy         =       0.02873633 Ry
     PV energy                 =      -0.40382453 Ry
     correction to one-el term =       0.08711035 Ry

     iteration # 32     ecut=    60.00 Ry     beta= 0.70
     Davidson diagonalization with overlap
     ethr =  5.18E-11,  avg # of iterations = 10.0

     add environment contribution to local potential
     Polarization accuracy = 5.8E-26, # of iterations =  46

     total cpu time spent up to now is       57.4 secs

     total energy              =   -1763.12213263 Ry
     estimated scf accuracy    <       0.00002309 Ry
     electrostatic embedding   =      -0.01667296 Ry
     cavitation energy         =       0.02873645 Ry
     PV energy                 =      -0.40382455 Ry
     correction to one-el term =       0.08984562 Ry

     iteration # 33     ecut=    60.00 Ry     beta= 0.70
     Davidson diagonalization with overlap
     ethr =  5.18E-11,  avg # of iterations = 10.0

     add environment contribution to local potential
     Polarization accuracy = 3.6E-26, # of iterations =  46

     total cpu time spent up to now is       59.7 secs

     total energy              =   -1763.12160992 Ry
     estimated scf accuracy    <       0.00000518 Ry
     electrostatic embedding   =      -0.01667344 Ry
     cavitation energy         =       0.02873664 Ry
     PV energy                 =      -0.40382446 Ry
     correction to one-el term =       0.08451908 Ry

     iteration # 34     ecut=    60.00 Ry     beta= 0.70
     Davidson diagonalization with overlap
     ethr =  5.18E-11,  avg # of iterations =  6.0

     add environment contribution to local potential
     Polarization accuracy = 8.2E-26, # of iterations =  46

     total cpu time spent up to now is       61.5 secs

     total energy              =   -1763.12204109 Ry
     estimated scf accuracy    <       0.00001119 Ry
     electrostatic embedding   =      -0.01667336 Ry
     cavitation energy         =       0.02873661 Ry
     PV energy                 =      -0.40382447 Ry
     correction to one-el term =       0.08307166 Ry

     iteration # 35     ecut=    60.00 Ry     beta= 0.70
     Davidson diagonalization with overlap
     ethr =  5.18E-11,  avg # of iterations = 13.0

     add environment contribution to local potential
     Polarization accuracy = 7.4E-26, # of iterations =  46

     total cpu time spent up to now is       63.7 secs

     total energy              =   -1763.12150246 Ry
     estimated scf accuracy    <       0.00000355 Ry
     electrostatic embedding   =      -0.01667364 Ry
     cavitation energy         =       0.02873680 Ry
     PV energy                 =      -0.40382441 Ry
     correction to one-el term =       0.08612430 Ry

     iteration # 36     ecut=    60.00 Ry     beta= 0.70
     Davidson diagonalization with overlap
     ethr =  5.18E-11,  avg # of iterations =  6.0

     add environment contribution to local potential
     Polarization accuracy = 2.6E-26, # of iterations =  47

     total cpu time spent up to now is       65.5 secs

     total energy              =   -1763.12146980 Ry
     estimated scf accuracy    <       0.00000342 Ry
     electrostatic embedding   =      -0.01667357 Ry
     cavitation energy         =       0.02873674 Ry
     PV energy                 =      -0.40382442 Ry
     correction to one-el term =       0.08718429 Ry

     iteration # 37     ecut=    60.00 Ry     beta= 0.70
     Davidson diagonalization with overlap
     ethr =  5.18E-11,  avg # of iterations = 11.0

     add environment contribution to local potential
     Polarization accuracy = 3.0E-26, # of iterations =  47

     total cpu time spent up to now is       67.6 secs

     total energy              =   -1763.12138797 Ry
     estimated scf accuracy    <       0.00000174 Ry
     electrostatic embedding   =      -0.01667353 Ry
     cavitation energy         =       0.02873667 Ry
     PV energy                 =      -0.40382444 Ry
     correction to one-el term =       0.08633558 Ry

     iteration # 38     ecut=    60.00 Ry     beta= 0.70
     Davidson diagonalization with overlap
     ethr =  5.18E-11,  avg # of iterations = 12.0

     add environment contribution to local potential
     Polarization accuracy = 6.4E-26, # of iterations =  47

     total cpu time spent up to now is       69.7 secs

     total energy              =   -1763.12146293 Ry
     estimated scf accuracy    <       0.00000281 Ry
     electrostatic embedding   =      -0.01667352 Ry
     cavitation energy         =       0.02873671 Ry
     PV energy                 =      -0.40382444 Ry
     correction to one-el term =       0.08620872 Ry

     iteration # 39     ecut=    60.00 Ry     beta= 0.70
     Davidson diagonalization with overlap
     ethr =  5.18E-11,  avg # of iterations =  6.0

     add environment contribution to local potential
     Polarization accuracy = 3.7E-26, # of iterations =  47

     total cpu time spent up to now is       71.5 secs

     total energy              =   -1763.12131218 Ry
     estimated scf accuracy    <       0.00000018 Ry
     electrostatic embedding   =      -0.01667343 Ry
     cavitation energy         =       0.02873663 Ry
     PV energy                 =      -0.40382447 Ry
     correction to one-el term =       0.08728527 Ry

     iteration # 40     ecut=    60.00 Ry     beta= 0.70
     Davidson diagonalization with overlap
     ethr =  3.21E-11,  avg # of iterations = 10.0

     add environment contribution to local potential
     Polarization accuracy = 9.8E-26, # of iterations =  46

     total cpu time spent up to now is       73.8 secs

     total energy              =   -1763.12196509 Ry
     estimated scf accuracy    <       0.00001833 Ry
     electrostatic embedding   =      -0.01667343 Ry
     cavitation energy         =       0.02873662 Ry
     PV energy                 =      -0.40382447 Ry
     correction to one-el term =       0.08921311 Ry

     iteration # 41     ecut=    60.00 Ry     beta= 0.70
     Davidson diagonalization with overlap
     ethr =  3.21E-11,  avg # of iterations = 10.0

     add environment contribution to local potential
     Polarization accuracy = 5.2E-26, # of iterations =  46

     total cpu time spent up to now is       76.0 secs

     total energy              =   -1763.12131056 Ry
     estimated scf accuracy    <       0.00000015 Ry
     electrostatic embedding   =      -0.01667337 Ry
     cavitation energy         =       0.02873659 Ry
     PV energy                 =      -0.40382448 Ry
     correction to one-el term =       0.08724544 Ry

     iteration # 42     ecut=    60.00 Ry     beta= 0.70
     Davidson diagonalization with overlap
     ethr =  2.61E-11,  avg # of iterations = 15.0

     add environment contribution to local potential
     Polarization accuracy = 3.5E-26, # of iterations =  47

     total cpu time spent up to now is       79.0 secs

     total energy              =   -1763.15141013 Ry
     estimated scf accuracy    <       0.00575539 Ry
     electrostatic embedding   =      -0.01667335 Ry
     cavitation energy         =       0.02873657 Ry
     PV energy                 =      -0.40382449 Ry
     correction to one-el term =       0.09420108 Ry

     iteration # 43     ecut=    60.00 Ry     beta= 0.70
     Davidson diagonalization with overlap
     ethr =  2.61E-11,  avg # of iterations = 13.0

     add environment contribution to local potential
     Polarization accuracy = 3.2E-26, # of iterations =  47

     total cpu time spent up to now is       82.0 secs

     total energy              =   -1763.13196164 Ry
     estimated scf accuracy    <       0.00080696 Ry
     electrostatic embedding   =      -0.01667321 Ry
     cavitation energy         =       0.02873657 Ry
     PV energy                 =      -0.40382449 Ry
     correction to one-el term =       0.09272193 Ry

     iteration # 44     ecut=    60.00 Ry     beta= 0.70
     Davidson diagonalization with overlap
     ethr =  2.61E-11,  avg # of iterations = 19.0

     add environment contribution to local potential
     Polarization accuracy = 4.7E-26, # of iterations =  47

     total cpu time spent up to now is       84.9 secs

     total energy              =   -1763.12230010 Ry
     estimated scf accuracy    <       0.00002940 Ry
     electrostatic embedding   =      -0.01667325 Ry
     cavitation energy         =       0.02873656 Ry
     PV energy                 =      -0.40382449 Ry
     correction to one-el term =       0.08928081 Ry

     iteration # 45     ecut=    60.00 Ry     beta= 0.70
     Davidson diagonalization with overlap
     ethr =  2.61E-11,  avg # of iterations = 10.0

     add environment contribution to local potential
     Polarization accuracy = 3.9E-26, # of iterations =  47

     total cpu time spent up to now is       87.3 secs

     total energy              =   -1763.12134493 Ry
     estimated scf accuracy    <       0.00000091 Ry
     electrostatic embedding   =      -0.01667324 Ry
     cavitation energy         =       0.02873652 Ry
     PV energy                 =      -0.40382451 Ry
     correction to one-el term =       0.08609347 Ry

     iteration # 46     ecut=    60.00 Ry     beta= 0.70
     Davidson diagonalization with overlap
     ethr =  2.61E-11,  avg # of iterations =  6.0

     add environment contribution to local potential
     Polarization accuracy = 3.7E-26, # of iterations =  47

     total cpu time spent up to now is       89.1 secs

     total energy              =   -1763.12141857 Ry
     estimated scf accuracy    <       0.00000238 Ry
     electrostatic embedding   =      -0.01667326 Ry
     cavitation energy         =       0.02873647 Ry
     PV energy                 =      -0.40382453 Ry
     correction to one-el term =       0.08546951 Ry

     iteration # 47     ecut=    60.00 Ry     beta= 0.70
     Davidson diagonalization with overlap
     ethr =  2.61E-11,  avg # of iterations =  7.0

     add environment contribution to local potential
     Polarization accuracy = 2.4E-26, # of iterations =  47

     total cpu time spent up to now is       90.9 secs

     total energy              =   -1763.12135411 Ry
     estimated scf accuracy    <       0.00000098 Ry
     electrostatic embedding   =      -0.01667325 Ry
     cavitation energy         =       0.02873644 Ry
     PV energy                 =      -0.40382454 Ry
     correction to one-el term =       0.08636751 Ry

     iteration # 48     ecut=    60.00 Ry     beta= 0.70
     Davidson diagonalization with overlap
     ethr =  2.61E-11,  avg # of iterations =  9.0

     add environment contribution to local potential
     Polarization accuracy = 2.4E-26, # of iterations =  47

     total cpu time spent up to now is       92.8 secs

     total energy              =   -1763.12148401 Ry
     estimated scf accuracy    <       0.00000349 Ry
     electrostatic embedding   =      -0.01667338 Ry
     cavitation energy         =       0.02873655 Ry
     PV energy                 =      -0.40382449 Ry
     correction to one-el term =       0.08678237 Ry

     iteration # 49     ecut=    60.00 Ry     beta= 0.70
     Davidson diagonalization with overlap
     ethr =  2.61E-11,  avg # of iterations = 10.0

     add environment contribution to local potential
     Polarization accuracy = 2.2E-26, # of iterations =  47

     total cpu time spent up to now is       94.9 secs

     total energy              =   -1763.12152192 Ry
     estimated scf accuracy    <       0.00000412 Ry
     electrostatic embedding   =      -0.01667327 Ry
     cavitation energy         =       0.02873646 Ry
     PV energy                 =      -0.40382453 Ry
     correction to one-el term =       0.08490824 Ry

     iteration # 50     ecut=    60.00 Ry     beta= 0.70
     Davidson diagonalization with overlap
     ethr =  2.61E-11,  avg # of iterations =  6.0

     add environment contribution to local potential
     Polarization accuracy = 8.1E-26, # of iterations =  46

     total cpu time spent up to now is       96.7 secs

     total energy              =   -1763.12151345 Ry
     estimated scf accuracy    <       0.00000410 Ry
     electrostatic embedding   =      -0.01667327 Ry
     cavitation energy         =       0.02873646 Ry
     PV energy                 =      -0.40382453 Ry
     correction to one-el term =       0.08488370 Ry

     iteration # 51     ecut=    60.00 Ry     beta= 0.70
     Davidson diagonalization with overlap
     ethr =  2.61E-11,  avg # of iterations =  6.0

     add environment contribution to local potential
     Polarization accuracy = 7.3E-26, # of iterations =  46

     total cpu time spent up to now is       98.4 secs

     total energy              =   -1763.12144297 Ry
     estimated scf accuracy    <       0.00000282 Ry
     electrostatic embedding   =      -0.01667323 Ry
     cavitation energy         =       0.02873644 Ry
     PV energy                 =      -0.40382454 Ry
     correction to one-el term =       0.08529995 Ry

     iteration # 52     ecut=    60.00 Ry     beta= 0.70
     Davidson diagonalization with overlap
     ethr =  2.61E-11,  avg # of iterations = 14.0

     add environment contribution to local potential
     Polarization accuracy = 3.1E-26, # of iterations =  47

     total cpu time spent up to now is      100.5 secs

     total energy              =   -1763.12193222 Ry
     estimated scf accuracy    <       0.00001012 Ry
     electrostatic embedding   =      -0.01667323 Ry
     cavitation energy         =       0.02873641 Ry
     PV energy                 =      -0.40382455 Ry
     correction to one-el term =       0.08365145 Ry

     iteration # 53     ecut=    60.00 Ry     beta= 0.70
     Davidson diagonalization with overlap
     ethr =  2.61E-11,  avg # of iterations =  9.0

     add environment contribution to local potential
     Polarization accuracy = 2.9E-26, # of iterations =  47

     total cpu time spent up to now is      102.7 secs

     total energy              =   -1763.12145724 Ry
     estimated scf accuracy    <       0.00000305 Ry
     electrostatic embedding   =      -0.01667326 Ry
     cavitation energy         =       0.02873650 Ry
     PV energy                 =      -0.40382452 Ry
     correction to one-el term =       0.08721145 Ry

     iteration # 54     ecut=    60.00 Ry     beta= 0.70
     Davidson diagonalization with overlap
     ethr =  2.61E-11,  avg # of iterations =  6.0

     add environment contribution to local potential
     Polarization accuracy = 3.7E-26, # of iterations =  47

     total cpu time spent up to now is      104.3 secs

     total energy              =   -1763.12144643 Ry
     estimated scf accuracy    <       0.00000274 Ry
     electrostatic embedding   =      -0.01667322 Ry
     cavitation energy         =       0.02873649 Ry
     PV energy                 =      -0.40382453 Ry
     correction to one-el term =       0.08692462 Ry

     iteration # 55     ecut=    60.00 Ry     beta= 0.70
     Davidson diagonalization with overlap
     ethr =  2.61E-11,  avg # of iterations =  6.0

     add environment contribution to local potential
     Polarization accuracy = 9.5E-26, # of iterations =  46

     total cpu time spent up to now is      106.1 secs

     total energy              =   -1763.12135176 Ry
     estimated scf accuracy    <       0.00000097 Ry
     electrostatic embedding   =      -0.01667323 Ry
     cavitation energy         =       0.02873643 Ry
     PV energy                 =      -0.40382454 Ry
     correction to one-el term =       0.08707932 Ry

     iteration # 56     ecut=    60.00 Ry     beta= 0.70
     Davidson diagonalization with overlap
     ethr =  2.61E-11,  avg # of iterations =  6.0

     the potential shift due to the Gaussian-smeared nuclei is    -0.9881 ev

     total cpu time spent up to now is      107.7 secs

     End of self-consistent calculation

          k = 0.0000 0.0000 0.0000 ( 47535 PWs)   bands (ev):

   -20.3017 -20.3017 -20.2603 -20.2603 -20.1464 -20.1460 -20.1445 -20.1441
   -18.8187 -18.8187 -18.8184 -18.8184 -16.9261 -16.9258 -16.9220 -16.9218
   -14.9295 -14.9271 -14.8989 -14.8959 -14.8706 -14.8614 -14.8589 -14.8491
   -14.5586 -14.5449 -14.5422 -14.5286 -13.2559 -13.2518 -13.2447 -13.2388
   -12.6576 -12.6540 -12.6337 -12.6277 -12.3037 -12.2935 -12.2539 -12.2324
   -12.2262 -12.2057 -12.1825 -12.1801 -12.0945 -12.0620 -12.0140 -11.9859
   -11.9690 -11.9604 -11.9490 -11.9402 -11.5086 -11.4954 -11.4927 -11.4831
   -10.7493 -10.7409 -10.6729 -10.6664 -10.4614 -10.4497 -10.4483 -10.4367
   -10.0253 -10.0176 -10.0169 -10.0115  -9.3384  -9.3242  -9.3157  -9.3044
    -8.6011  -8.5974  -8.5815  -8.5511  -8.5111  -8.5094  -8.4857  -8.4834
    -8.4237  -8.4164  -8.4018  -8.3546  -8.3460  -8.2856  -8.2690  -8.2658
    -7.4730  -7.4666  -7.4660  -7.4477  -7.3028  -7.3000  -7.2623  -7.2210
    -6.9256  -6.8571  -6.7826  -6.6723  -6.6013  -6.5700  -6.4763  -6.4614
    -6.2451  -6.2339  -6.2039  -6.1832  -6.1423  -6.1374  -6.0268  -6.0179
    -5.7226  -5.7220  -5.7005  -5.6675  -5.4616  -5.4351  -5.4317  -5.4153
    -5.3770  -5.3107  -5.3103  -5.2528  -5.1341  -5.1020  -5.0976  -5.0904
    -5.0484  -5.0333  -4.9587  -4.9492  -4.9460  -4.9374  -4.8508  -4.8302
    -4.8138  -4.8113  -4.7962  -4.7650  -4.6541  -4.6345  -4.6206  -4.5982
    -4.5019  -4.4687  -4.4130  -4.3960  -4.3603  -4.3534  -4.1588  -4.1364
    -4.0484  -4.0172  -3.9610  -3.9437  -3.9237  -3.9121  -3.9062  -3.8243
    -3.7824  -3.7816  -3.7666  -3.7520  -3.6402  -3.6322  -3.6245  -3.6151
    -3.5867  -3.5511  -3.5197  -3.4636  -3.4130  -3.3625  -3.3524  -3.3496
    -3.2339  -3.2293  -3.2055  -3.2051  -3.1740  -3.1515  -3.0844  -3.0823
    -3.0724  -3.0386  -3.0264  -2.9984  -2.9876  -2.9396  -2.8304  -2.7978
    -2.7561  -2.7503  -2.7216  -2.7196  -2.6691  -2.6667  -2.6334  -2.6228
    -2.6181  -2.5703  -2.5022  -2.4992  -2.3656  -2.3503  -2.3501  -2.3005
    -2.2252  -2.2172  -2.1996  -2.1927  -2.1400  -2.1302  -2.0782  -2.0745
    -2.0553  -2.0446  -1.9849  -1.9642  -1.9636  -1.9256  -1.9205  -1.8627
    -1.6253  -1.5902  -1.5837  -1.5475  -1.5123  -1.4899  -1.4858  -1.4343
    -1.3856  -1.3641  -1.3370  -1.3365  -1.2921  -1.2270  -1.1501  -1.1161
    -1.0117  -0.9948  -0.9902  -0.9885  -0.5635  -0.5333  -0.5179  -0.5007
    -0.3872  -0.3670  -0.3641  -0.3424   0.0372   0.0446   0.2157   0.2314
     0.2902   0.3219   0.3766   0.3865   0.4545   0.4632   0.4770   0.5335
     0.9304   0.9328   0.9461   0.9482   0.9489   0.9694   1.0073   1.0121
     1.0521   1.0624   1.0865   1.1093   1.1674   1.1828   1.2573   1.2834
     3.6181   3.6275   3.6471   3.6624   4.2040

     highest occupied, lowest unoccupied level (ev):     1.2834    3.6181

!    total energy              =   -1763.12130105 Ry
     estimated scf accuracy    <          1.3E-09 Ry

     The total energy is the sum of the following terms:
     one-electron contribution =   -1173.41880071 Ry
     hartree contribution      =     792.00560741 Ry
     xc contribution           =    -615.88005719 Ry
     ewald contribution        =    -764.44114332 Ry
     DFT-D3 Dispersion         =      -1.08220620 Ry
     electrostatic embedding   =      -0.01667326 Ry
     cavitation energy         =       0.02873638 Ry
     PV energy                 =      -0.40382455 Ry
     correction to one-el term =       0.08706040 Ry

     convergence has been achieved in  56 iterations

     Writing all to output data dir ./outdir/4amp15.save/

     init_run     :      3.56s CPU      3.70s WALL (       1 calls)
     electrons    :     92.33s CPU    103.89s WALL (       1 calls)

     Called by init_run:
     wfcinit      :      0.46s CPU      0.50s WALL (       1 calls)
     potinit      :      0.96s CPU      1.00s WALL (       1 calls)
     hinit0       :      1.72s CPU      1.73s WALL (       1 calls)

     Called by electrons:
     c_bands      :     66.51s CPU     69.50s WALL (      56 calls)
     sum_band     :      6.39s CPU      6.94s WALL (      56 calls)
     v_of_rho     :      1.28s CPU      1.65s WALL (      57 calls)
     newd         :      2.01s CPU      2.15s WALL (      57 calls)
     mix_rho      :      1.34s CPU      1.49s WALL (      56 calls)
     energy_dftd3 :      0.60s CPU      0.60s WALL (       1 calls)

     Called by c_bands:
     init_us_2    :      0.20s CPU      0.21s WALL (     113 calls)
     init_us_2:cp :      0.20s CPU      0.21s WALL (     113 calls)
     regterg      :     66.19s CPU     69.16s WALL (      56 calls)

     Called by *egterg:
     rdiaghg      :     24.40s CPU     24.84s WALL (     449 calls)
     h_psi        :     25.71s CPU     27.75s WALL (     450 calls)
     s_psi        :      4.15s CPU      4.16s WALL (     450 calls)
     g_psi        :      0.04s CPU      0.04s WALL (     393 calls)

     Called by h_psi:
     h_psi:calbec :      5.18s CPU      6.00s WALL (     450 calls)
     vloc_psi     :     16.30s CPU     17.51s WALL (     450 calls)
     add_vuspsi   :      4.18s CPU      4.20s WALL (     450 calls)

     General routines
     calbec       :      6.82s CPU      7.89s WALL (     506 calls)
     fft          :      1.58s CPU      2.21s WALL (     625 calls)
     ffts         :      1.38s CPU      1.42s WALL (    1798 calls)
     fftw         :     17.89s CPU     19.23s WALL (   57402 calls)
     interpolate  :      0.62s CPU      0.69s WALL (      57 calls)

     Parallel routines

     Environ routines

     PWSCF        :   1m36.41s CPU   1m48.59s WALL


   This run was terminated on:  19:14:27  22Feb2024

=------------------------------------------------------------------------------=
   JOB DONE.
=------------------------------------------------------------------------------=
