cyk@supercomputer:~/q-e-qe-7.2/4amp15solvent$ mpirun -np 150 /home/cyk/q-e-qe-7.2/bin/pw.x -input 4amp15_relax.in

     Program PWSCF v.7.2 starts on 22Feb2024 at 13:54: 7

     This program is part of the open-source Quantum ESPRESSO suite
     for quantum simulation of materials; please cite
         "P. Giannozzi et al., J. Phys.:Condens. Matter 21 395502 (2009);
         "P. Giannozzi et al., J. Phys.:Condens. Matter 29 465901 (2017);
         "P. Giannozzi et al., J. Chem. Phys. 152 154105 (2020);
          URL http://www.quantum-espresso.org",
     in publications or presentations arising from this work. More details at
     http://www.quantum-espresso.org/quote

     Parallel version (MPI), running on   150 processors

     MPI processes distributed on     1 nodes
     1399782 MiB available memory on the printing compute node when the environment starts

     Reading input from 4amp15_relax.in

     Current dimensions of program PWSCF are:
     Max number of different atomic species (ntypx) = 10
     Max number of k-points (npk) =  40000
     Max angular momentum in pseudopotentials (lmaxx) =  4

     IMPORTANT: XC functional enforced from input :
     Exchange-correlation= PBE
                           (   1   4   3   4   0   0   0)
     Any further DFT definition will be discarded
     Please, verify this is what you really want


     gamma-point specific algorithms are used
     Message from routine setup:
     using ibrav=0 with symmetry is DISCOURAGED, use correct ibrav instead

     R & G space division:  proc/nbgrp/npool/nimage =     150
     Subspace diagonalization in iterative solution of the eigenvalue problem:
     one sub-group per band group will be used
     custom distributed-memory algorithm (size of sub-group:  3*  3 procs)


     Parallelization info
     --------------------
     sticks:   dense  smooth     PW     G-vecs:    dense   smooth      PW
     Min         104      40      9                20028     5032     622
     Max         106      42     12                20050     5090     648
     Sum       15643    6271   1569              3006229   760417   95069

     Using Slab Decomposition



     bravais-lattice index     =            0
     lattice parameter (alat)  =      30.7969  a.u.
     unit-cell volume          =   12112.4072 (a.u.)^3
     number of atoms/cell      =          196
     number of atomic types    =            4
     number of electrons       =       560.00
     number of Kohn-Sham states=          280
     kinetic-energy cutoff     =      60.0000  Ry
     charge density cutoff     =     600.0000  Ry
     scf convergence threshold =      1.0E-10
     mixing beta               =       0.7000
     number of iterations used =            8  local-TF  mixing
     energy convergence thresh.=      1.0E-04
     force convergence thresh. =      1.0E-03
     Exchange-correlation= PBE
                           (   1   4   3   4   0   0   0)
     nstep                     =           50


     celldm(1)=  30.796867  celldm(2)=   0.000000  celldm(3)=   0.000000
     celldm(4)=   0.000000  celldm(5)=   0.000000  celldm(6)=   0.000000

     crystal axes: (cart. coord. in units of alat)
               a(1) = (   1.000000   0.000000   0.000000 )
               a(2) = (   0.000000   0.345487   0.000000 )
               a(3) = (  -0.937552   0.000000   1.200271 )

     reciprocal axes: (cart. coord. in units 2 pi/alat)
               b(1) = (  1.000000 -0.000000  0.781117 )
               b(2) = (  0.000000  2.894466 -0.000000 )
               b(3) = (  0.000000  0.000000  0.833145 )


     PseudoPot. # 1 for O  read from file:
     /home/cyk/q-e-qe-7.2/pp/O.pbe-n-rrkjus_psl.1.0.0.UPF
     MD5 check sum: 91400c9766925bcf19f520983a725ff0
     Pseudo is Ultrasoft + core correction, Zval =  6.0
     Generated using &quot;atomic&quot; code by A. Dal Corso  v.6.3MaX
     Using radial grid of 1095 points,  4 beta functions with:
                l(1) =   0
                l(2) =   0
                l(3) =   1
                l(4) =   1
     Q(r) pseudized with 0 coefficients


     PseudoPot. # 2 for N  read from file:
     /home/cyk/q-e-qe-7.2/pp/N.pbe-n-rrkjus_psl.1.0.0.UPF
     MD5 check sum: ada94e3ed05223de5319d0572dc76806
     Pseudo is Ultrasoft + core correction, Zval =  5.0
     Generated using &quot;atomic&quot; code by A. Dal Corso  v.6.3MaX
     Using radial grid of 1085 points,  4 beta functions with:
                l(1) =   0
                l(2) =   0
                l(3) =   1
                l(4) =   1
     Q(r) pseudized with 0 coefficients


     PseudoPot. # 3 for C  read from file:
     /home/cyk/q-e-qe-7.2/pp/C.pbe-n-rrkjus_psl.1.0.0.UPF
     MD5 check sum: 1fdd950c42eb37d8afe3dd2f8d12311e
     Pseudo is Ultrasoft + core correction, Zval =  4.0
     Generated using &quot;atomic&quot; code by A. Dal Corso  v.6.3MaX
     Using radial grid of 1073 points,  4 beta functions with:
                l(1) =   0
                l(2) =   0
                l(3) =   1
                l(4) =   1
     Q(r) pseudized with 0 coefficients


     PseudoPot. # 4 for H  read from file:
     /home/cyk/q-e-qe-7.2/pp/H.pbe-rrkjus_psl.1.0.0.UPF
     MD5 check sum: 3f4114867bd07edc7f1424d066fc1888
     Pseudo is Ultrasoft, Zval =  1.0
     Generated using &quot;atomic&quot; code by A. Dal Corso  v.6.3MaX
     Using radial grid of  929 points,  2 beta functions with:
                l(1) =   0
                l(2) =   0
     Q(r) pseudized with 0 coefficients


     atomic species   valence    mass     pseudopotential
        O              6.00    16.00000     O ( 1.00)
        N              5.00    14.00000     N ( 1.00)
        C              4.00    12.00000     C ( 1.00)
        H              1.00     1.00000     H ( 1.00)

      4 Sym. Ops., with inversion, found ( 2 have fractional translation)



   Cartesian axes

     site n.     atom                  positions (alat units)
         1           O   tau(   1) = (  -0.2800852   0.2365203   0.5805470  )
         2           O   tau(   2) = (   0.0031429   0.2647121   0.6679628  )
         3           O   tau(   3) = (   0.2341418   0.3276943   0.7379026  )
         4           N   tau(   4) = (  -0.4499559   0.1674920   0.7842690  )
         5           C   tau(   5) = (  -0.1110941   0.0945252   0.8006407  )
         6           H   tau(   6) = (  -0.1381922   0.1348750   0.8305647  )
         7           C   tau(   7) = (  -0.0585801   0.0439114   0.8383892  )
         8           H   tau(   8) = (  -0.0493887   0.0499135   0.8943855  )
         9           C   tau(   9) = (  -0.0184814   0.3293872   0.7966558  )
        10           H   tau(  10) = (   0.0179337   0.2946250   0.8235863  )
        11           C   tau(  11) = (  -0.0322373   0.3211992   0.7158176  )
        12           C   tau(  12) = (  -0.0854918   0.0268443   0.6770968  )
        13           H   tau(  13) = (  -0.0949550   0.0203381   0.6212002  )
        14           C   tau(  14) = (  -0.1251080   0.0870972   0.7184942  )
        15           C   tau(  15) = (  -0.1793886   0.1400949   0.6742762  )
        16           H   tau(  16) = (  -0.1880635   0.1273126   0.6193470  )
        17           C   tau(  17) = (  -0.2175367   0.2036300   0.7019904  )
        18           H   tau(  18) = (  -0.2098992   0.2186514   0.7565092  )
        19           C   tau(  19) = (  -0.2715626   0.2521363   0.6517111  )
        20           C   tau(  20) = (  -0.3164554   0.3199900   0.6879833  )
        21           C   tau(  21) = (  -0.3672215   0.0196582   0.6392403  )
        22           H   tau(  22) = (  -0.3715580   0.0065947   0.5838562  )
        23           C   tau(  23) = (  -0.4114353   0.0828823   0.6693431  )
        24           H   tau(  24) = (  -0.4450277   0.1131701   0.6345844  )
        25           C   tau(  25) = (  -0.4069638   0.1024023   0.7500973  )
        26           C   tau(  26) = (  -0.3551784   0.0592510   0.7984442  )
        27           H   tau(  27) = (  -0.3494910   0.0735970   0.8533818  )
        28           C   tau(  28) = (  -0.3115364   0.3413065   0.7683054  )
        29           H   tau(  29) = (  -0.2775065   0.3116243   0.8031697  )
        30           C   tau(  30) = (  -0.5216017   0.1806551   0.7603236  )
        31           H   tau(  31) = (  -0.5445156   0.1447518   0.7223650  )
        32           C   tau(  32) = (  -0.5701342   0.2484742   0.7885300  )
        33           C   tau(  33) = (   0.3547986   0.2585969   0.7545623  )
        34           H   tau(  34) = (   0.3357555   0.2208884   0.7161788  )
        35           C   tau(  35) = (   0.3070882   0.3233066   0.7760832  )
        36           C   tau(  36) = (   0.3336764   0.0316466   0.8329400  )
        37           H   tau(  37) = (   0.3009269   0.0757404   0.8484991  )
        38           C   tau(  38) = (  -0.5912813   0.0206947   0.8671957  )
        39           H   tau(  39) = (  -0.5729004   0.0575554   0.9066930  )
        40           C   tau(  40) = (  -0.5428585   0.3029920   0.8451468  )
        41           H   tau(  41) = (  -0.4911264   0.2967891   0.8685196  )
        42           C   tau(  42) = (   0.0583258   0.2095724   0.7035748  )
        43           H   tau(  43) = (   0.0793245   0.1732734   0.6621691  )
        44           H   tau(  44) = (   0.0307581   0.1781496   0.7450586  )
        45           H   tau(  45) = (   0.1029453   0.2393782   0.7279379  )
        46           C   tau(  46) = (   0.1897708   0.0548288   0.7465325  )
        47           H   tau(  47) = (   0.1420491   0.0529010   0.7120379  )
        48           H   tau(  48) = (   0.2235316   0.1004576   0.7308078  )
        49           H   tau(  49) = (   0.1731438   0.0611301   0.8026956  )
        50           O   tau(  50) = (   0.8113092   0.0637769   0.0195884  )
        51           O   tau(  51) = (  -0.4094709   0.0919686   1.1324436  )
        52           O   tau(  52) = (  -0.6404698   0.1549509   1.0625038  )
        53           N   tau(  53) = (   0.0436278   0.3402355   1.0161374  )
        54           C   tau(  54) = (  -0.2952339   0.2672687   0.9997657  )
        55           H   tau(  55) = (  -0.2681358   0.3076184   0.9698417  )
        56           C   tau(  56) = (  -0.3477479   0.2166548   0.9620171  )
        57           H   tau(  57) = (  -0.3569393   0.2226570   0.9060209  )
        58           C   tau(  58) = (  -0.3878466   0.1566438   1.0037506  )
        59           H   tau(  59) = (  -0.4242618   0.1218816   0.9768201  )
        60           C   tau(  60) = (  -0.3740908   0.1484557   1.0845888  )
        61           C   tau(  61) = (  -0.3208362   0.1995878   1.1233095  )
        62           H   tau(  62) = (  -0.3113730   0.1930816   1.1792062  )
        63           C   tau(  63) = (  -0.2812200   0.2598407   1.0819122  )
        64           C   tau(  64) = (  -0.2269394   0.3128384   1.1261302  )
        65           H   tau(  65) = (  -0.2182646   0.3000561   1.1810594  )
        66           C   tau(  66) = (  -0.1887913   0.0308865   1.0984159  )
        67           H   tau(  67) = (  -0.1964289   0.0459080   1.0438972  )
        68           C   tau(  68) = (  -0.1347654   0.0793929   1.1486953  )
        69           C   tau(  69) = (  -0.0898726   0.1472465   1.1124231  )
        70           C   tau(  70) = (  -0.0391066   0.1924017   1.1611661  )
        71           H   tau(  71) = (   0.9027820   0.1793381   0.0162793  )
        72           C   tau(  72) = (   0.0051072   0.2556258   1.1310633  )
        73           H   tau(  73) = (   0.0386997   0.2859136   1.1658219  )
        74           C   tau(  74) = (   0.0006357   0.2751458   1.0503091  )
        75           C   tau(  75) = (  -0.0511497   0.2319945   1.0019622  )
        76           H   tau(  76) = (  -0.0568370   0.2463405   0.9470246  )
        77           C   tau(  77) = (  -0.0947916   0.1685631   1.0321010  )
        78           H   tau(  78) = (  -0.1288215   0.1388809   0.9972367  )
        79           C   tau(  79) = (   0.1152737   0.0079116   1.0400828  )
        80           H   tau(  80) = (   0.1381876   0.3174952   1.0780413  )
        81           C   tau(  81) = (   0.1638062   0.0757307   1.0118764  )
        82           C   tau(  82) = (  -0.7611266   0.0858535   1.0458441  )
        83           H   tau(  83) = (  -0.7420835   0.0481450   1.0842275  )
        84           C   tau(  84) = (  -0.7134163   0.1505632   1.0243232  )
        85           C   tau(  85) = (  -0.7400044   0.2043900   0.9674664  )
        86           H   tau(  86) = (  -0.7072549   0.2484839   0.9519073  )
        87           C   tau(  87) = (   0.1849533   0.1934381   0.9332106  )
        88           H   tau(  88) = (   0.1665723   0.2302988   0.8937133  )
        89           C   tau(  89) = (   0.1365305   0.1302486   0.9552596  )
        90           H   tau(  90) = (   0.0847984   0.1240457   0.9318867  )
        91           C   tau(  91) = (  -0.4646538   0.0368289   1.0968316  )
        92           H   tau(  92) = (  -0.4856525   0.0005300   1.1382373  )
        93           H   tau(  93) = (  -0.4370861   0.0054062   1.0553478  )
        94           H   tau(  94) = (  -0.5092733   0.0666347   1.0724685  )
        95           C   tau(  95) = (  -0.5960988   0.2275722   1.0538739  )
        96           H   tau(  96) = (  -0.5483771   0.2256444   1.0883685  )
        97           H   tau(  97) = (  -0.6298597   0.2732010   1.0695986  )
        98           H   tau(  98) = (  -0.5794719   0.2338736   0.9977108  )
        99           O   tau(  99) = (   0.3425331   0.1089666   0.6197239  )
       100           O   tau( 100) = (   0.0593051   0.0807748   0.5323081  )
       101           O   tau( 101) = (  -0.1716938   0.0177926   0.4623684  )
       102           N   tau( 102) = (   0.5124038   0.1779949   0.4160019  )
       103           C   tau( 103) = (   0.1735421   0.2509617   0.3996302  )
       104           H   tau( 104) = (   0.2006402   0.2106119   0.3697062  )
       105           C   tau( 105) = (   0.1210281   0.3015755   0.3618817  )
       106           H   tau( 106) = (   0.1118367   0.2955734   0.3058854  )
       107           C   tau( 107) = (   0.0809294   0.0160997   0.4036151  )
       108           H   tau( 108) = (   0.0445142   0.0508619   0.3766846  )
       109           C   tau( 109) = (   0.0946853   0.0242877   0.4844533  )
       110           C   tau( 110) = (   0.1479398   0.3186426   0.5231741  )
       111           H   tau( 111) = (   0.1574030   0.3251488   0.5790707  )
       112           C   tau( 112) = (   0.1875560   0.2583897   0.4817767  )
       113           C   tau( 113) = (   0.2418366   0.2053920   0.5259947  )
       114           H   tau( 114) = (   0.2505115   0.2181743   0.5809239  )
       115           C   tau( 115) = (   0.2799847   0.1418569   0.4982805  )
       116           H   tau( 116) = (   0.2723471   0.1268355   0.4437618  )
       117           C   tau( 117) = (   0.3340106   0.0933506   0.5485598  )
       118           C   tau( 118) = (   0.3789034   0.0254969   0.5122876  )
       119           C   tau( 119) = (   0.4296694   0.3258287   0.5610306  )
       120           H   tau( 120) = (   0.4340060   0.3388922   0.6164147  )
       121           C   tau( 121) = (   0.4738832   0.2626046   0.5309278  )
       122           H   tau( 122) = (   0.5074757   0.2323168   0.5656865  )
       123           C   tau( 123) = (   0.4694117   0.2430846   0.4501736  )
       124           C   tau( 124) = (   0.4176263   0.2862359   0.4018267  )
       125           H   tau( 125) = (   0.4119390   0.2718899   0.3468891  )
       126           C   tau( 126) = (   0.3739844   0.0041804   0.4319655  )
       127           H   tau( 127) = (   0.3399545   0.0338626   0.3971012  )
       128           C   tau( 128) = (   0.5840497   0.1648318   0.4399473  )
       129           H   tau( 129) = (   0.6069636   0.2007351   0.4779059  )
       130           C   tau( 130) = (   0.6325822   0.0970127   0.4117409  )
       131           C   tau( 131) = (  -0.2923506   0.0868900   0.4457086  )
       132           H   tau( 132) = (  -0.2733075   0.1245985   0.4840921  )
       133           C   tau( 133) = (  -0.2446403   0.0221803   0.4241877  )
       134           C   tau( 134) = (  -0.2712284   0.3138403   0.3673309  )
       135           H   tau( 135) = (  -0.2384789   0.2697465   0.3517718  )
       136           C   tau( 136) = (   0.6537293   0.3247922   0.3330752  )
       137           H   tau( 137) = (   0.6353483   0.2879315   0.2935779  )
       138           C   tau( 138) = (   0.6053065   0.0424949   0.3551242  )
       139           H   tau( 139) = (   0.5535744   0.0486978   0.3317513  )
       140           C   tau( 140) = (   0.0041222   0.1359145   0.4966961  )
       141           H   tau( 141) = (  -0.0168765   0.1722135   0.5381019  )
       142           H   tau( 142) = (   0.0316899   0.1673373   0.4552123  )
       143           H   tau( 143) = (  -0.0404973   0.1061087   0.4723330  )
       144           C   tau( 144) = (  -0.1273228   0.2906581   0.4537384  )
       145           H   tau( 145) = (  -0.0796011   0.2925859   0.4882330  )
       146           H   tau( 146) = (  -0.1610837   0.2450293   0.4694632  )
       147           H   tau( 147) = (  -0.1106959   0.2843568   0.3975753  )
       148           O   tau( 148) = (  -0.7488612   0.2817100   1.1806825  )
       149           O   tau( 149) = (   0.4719189   0.2535183   0.0678273  )
       150           O   tau( 150) = (   0.7029178   0.1905360   0.1377671  )
       151           N   tau( 151) = (   0.0188201   0.0052514   0.1841336  )
       152           C   tau( 152) = (   0.3576819   0.0782182   0.2005053  )
       153           H   tau( 153) = (   0.3305838   0.0378685   0.2304292  )
       154           C   tau( 154) = (   0.4101959   0.1288321   0.2382538  )
       155           H   tau( 155) = (   0.4193873   0.1228299   0.2942500  )
       156           C   tau( 156) = (   0.4502946   0.1888431   0.1965204  )
       157           H   tau( 157) = (   0.4867098   0.2236053   0.2234508  )
       158           C   tau( 158) = (   0.4365387   0.1970312   0.1156821  )
       159           C   tau( 159) = (   0.3832842   0.1458991   0.0769614  )
       160           H   tau( 160) = (   0.3738210   0.1524053   0.0210648  )
       161           C   tau( 161) = (   0.3436680   0.0856462   0.1183587  )
       162           C   tau( 162) = (   0.2893874   0.0326485   0.0741407  )
       163           H   tau( 163) = (   0.2807125   0.0454308   0.0192115  )
       164           C   tau( 164) = (   0.2512393   0.3146004   0.1018550  )
       165           H   tau( 165) = (   0.2588768   0.2995789   0.1563737  )
       166           C   tau( 166) = (   0.1972134   0.2660940   0.0515756  )
       167           C   tau( 167) = (   0.1523206   0.1982404   0.0878478  )
       168           C   tau( 168) = (   0.1015546   0.1530852   0.0391048  )
       169           H   tau( 169) = (  -0.8403340   0.1661488   1.1839916  )
       170           C   tau( 170) = (   0.0573408   0.0898611   0.0692076  )
       171           H   tau( 171) = (   0.0237483   0.0595733   0.0344490  )
       172           C   tau( 172) = (   0.0618123   0.0703411   0.1499618  )
       173           C   tau( 173) = (   0.1135977   0.1134924   0.1983088  )
       174           H   tau( 174) = (   0.1192850   0.0991464   0.2532464  )
       175           C   tau( 175) = (   0.1572396   0.1769238   0.1681700  )
       176           H   tau( 176) = (   0.1912695   0.2066060   0.2030342  )
       177           C   tau( 177) = (  -0.0528257   0.3375752   0.1601882  )
       178           H   tau( 178) = (  -0.0757396   0.0279917   0.1222296  )
       179           C   tau( 179) = (  -0.1013582   0.2697562   0.1883945  )
       180           C   tau( 180) = (   0.8235746   0.2596334   0.1544269  )
       181           H   tau( 181) = (   0.8045315   0.2973419   0.1160434  )
       182           C   tau( 182) = (   0.7758643   0.1949237   0.1759477  )
       183           C   tau( 183) = (   0.8024524   0.1410968   0.2328045  )
       184           H   tau( 184) = (   0.7697029   0.0970030   0.2483637  )
       185           C   tau( 185) = (  -0.1225053   0.1520488   0.2670603  )
       186           H   tau( 186) = (  -0.1041243   0.1151881   0.3065576  )
       187           C   tau( 187) = (  -0.0740825   0.2152383   0.2450113  )
       188           H   tau( 188) = (  -0.0223504   0.2214412   0.2683842  )
       189           C   tau( 189) = (   0.5271018   0.3086580   0.1034393  )
       190           H   tau( 190) = (   0.5481005   0.3449569   0.0620336  )
       191           H   tau( 191) = (   0.4995341   0.3400807   0.1449231  )
       192           H   tau( 192) = (   0.5717213   0.2788522   0.1278024  )
       193           C   tau( 193) = (   0.6585468   0.1179147   0.1463970  )
       194           H   tau( 194) = (   0.6108251   0.1198425   0.1119025  )
       195           H   tau( 195) = (   0.6923076   0.0722859   0.1306723  )
       196           H   tau( 196) = (   0.6419198   0.1116133   0.2025601  )

     number of k points=     1
                       cart. coord. in units 2pi/alat
        k(    1) = (   0.0000000   0.0000000   0.0000000), wk =   2.0000000

     Dense  grid:  1503115 G-vectors     FFT dimensions: ( 243,  90, 384)

     Smooth grid:   380209 G-vectors     FFT dimensions: ( 160,  54, 240)

     Estimated max dynamical RAM per process >      68.70 MB

     Estimated total dynamical RAM >      10.06 GB

     Check: negative core charge=   -0.000001

     Initial potential from superposition of free atoms

     starting charge     559.9952, renormalised to     560.0000
     Starting wfcs are  532 randomized atomic wfcs

     total cpu time spent up to now is        2.7 secs

     Self-consistent Calculation

     iteration #  1     ecut=    60.00 Ry     beta= 0.70
     Davidson diagonalization with overlap
     ethr =  1.00E-02,  avg # of iterations =  3.0

     total cpu time spent up to now is        4.0 secs

     total energy              =   -1758.54880176 Ry
     estimated scf accuracy    <      27.29378600 Ry

     iteration #  2     ecut=    60.00 Ry     beta= 0.70
     Davidson diagonalization with overlap
     ethr =  4.87E-03,  avg # of iterations =  2.0

     total cpu time spent up to now is        4.8 secs

     total energy              =   -1756.11753884 Ry
     estimated scf accuracy    <       7.25745380 Ry

     iteration #  3     ecut=    60.00 Ry     beta= 0.70
     Davidson diagonalization with overlap
     ethr =  1.30E-03,  avg # of iterations =  4.0

     total cpu time spent up to now is        6.1 secs

     total energy              =   -1757.79402937 Ry
     estimated scf accuracy    <       1.02448368 Ry

     iteration #  4     ecut=    60.00 Ry     beta= 0.70
     Davidson diagonalization with overlap
     ethr =  1.83E-04,  avg # of iterations =  4.0

     total cpu time spent up to now is        7.0 secs

     total energy              =   -1757.65246983 Ry
     estimated scf accuracy    <       0.50075800 Ry

     iteration #  5     ecut=    60.00 Ry     beta= 0.70
     Davidson diagonalization with overlap
     ethr =  8.94E-05,  avg # of iterations =  9.0

     total cpu time spent up to now is        8.8 secs

     total energy              =   -1757.85259073 Ry
     estimated scf accuracy    <       0.64413626 Ry

     iteration #  6     ecut=    60.00 Ry     beta= 0.70
     Davidson diagonalization with overlap
     ethr =  8.94E-05,  avg # of iterations =  5.0

     total cpu time spent up to now is        9.8 secs

     total energy              =   -1757.78111408 Ry
     estimated scf accuracy    <       0.23034878 Ry

     iteration #  7     ecut=    60.00 Ry     beta= 0.70
     Davidson diagonalization with overlap
     ethr =  4.11E-05,  avg # of iterations =  6.0

     total cpu time spent up to now is       11.1 secs

     total energy              =   -1757.87955817 Ry
     estimated scf accuracy    <       0.06351988 Ry

     iteration #  8     ecut=    60.00 Ry     beta= 0.70
     Davidson diagonalization with overlap
     ethr =  1.13E-05,  avg # of iterations =  1.0

     total cpu time spent up to now is       11.9 secs

     total energy              =   -1757.86783498 Ry
     estimated scf accuracy    <       0.04899096 Ry

     iteration #  9     ecut=    60.00 Ry     beta= 0.70
     Davidson diagonalization with overlap
     ethr =  8.75E-06,  avg # of iterations =  2.0

     total cpu time spent up to now is       12.8 secs

     total energy              =   -1757.86241064 Ry
     estimated scf accuracy    <       0.02010720 Ry

     iteration # 10     ecut=    60.00 Ry     beta= 0.70
     Davidson diagonalization with overlap
     ethr =  3.59E-06,  avg # of iterations =  5.0

     total cpu time spent up to now is       14.1 secs

     total energy              =   -1757.87057866 Ry
     estimated scf accuracy    <       0.00343367 Ry

     iteration # 11     ecut=    60.00 Ry     beta= 0.70
     Davidson diagonalization with overlap
     ethr =  6.13E-07,  avg # of iterations =  6.0

     total cpu time spent up to now is       15.1 secs

     total energy              =   -1757.87091697 Ry
     estimated scf accuracy    <       0.00141043 Ry

     iteration # 12     ecut=    60.00 Ry     beta= 0.70
     Davidson diagonalization with overlap
     ethr =  2.52E-07,  avg # of iterations =  2.0

     total cpu time spent up to now is       16.0 secs

     total energy              =   -1757.87061898 Ry
     estimated scf accuracy    <       0.00119914 Ry

     iteration # 13     ecut=    60.00 Ry     beta= 0.70
     Davidson diagonalization with overlap
     ethr =  2.14E-07,  avg # of iterations =  2.0

     total cpu time spent up to now is       16.9 secs

     total energy              =   -1757.87049300 Ry
     estimated scf accuracy    <       0.00045436 Ry

     iteration # 14     ecut=    60.00 Ry     beta= 0.70
     Davidson diagonalization with overlap
     ethr =  8.11E-08,  avg # of iterations =  6.0

     total cpu time spent up to now is       18.2 secs

     total energy              =   -1757.87070404 Ry
     estimated scf accuracy    <       0.00017793 Ry

     iteration # 15     ecut=    60.00 Ry     beta= 0.70
     Davidson diagonalization with overlap
     ethr =  3.18E-08,  avg # of iterations =  2.0

     total cpu time spent up to now is       19.0 secs

     total energy              =   -1757.87065825 Ry
     estimated scf accuracy    <       0.00009634 Ry

     iteration # 16     ecut=    60.00 Ry     beta= 0.70
     Davidson diagonalization with overlap
     ethr =  1.72E-08,  avg # of iterations = 10.0

     total cpu time spent up to now is       20.8 secs

     total energy              =   -1757.87070519 Ry
     estimated scf accuracy    <       0.00011955 Ry

     iteration # 17     ecut=    60.00 Ry     beta= 0.70
     Davidson diagonalization with overlap
     ethr =  1.72E-08,  avg # of iterations =  2.0

     total cpu time spent up to now is       21.6 secs

     total energy              =   -1757.87069377 Ry
     estimated scf accuracy    <       0.00007221 Ry

     iteration # 18     ecut=    60.00 Ry     beta= 0.70
     Davidson diagonalization with overlap
     ethr =  1.29E-08,  avg # of iterations =  8.0

     total cpu time spent up to now is       22.8 secs

     total energy              =   -1757.87070016 Ry
     estimated scf accuracy    <       0.00002050 Ry

     iteration # 19     ecut=    60.00 Ry     beta= 0.70
     Davidson diagonalization with overlap
     ethr =  3.66E-09,  avg # of iterations =  2.0

     total cpu time spent up to now is       23.6 secs

     total energy              =   -1757.87069765 Ry
     estimated scf accuracy    <       0.00001278 Ry

     iteration # 20     ecut=    60.00 Ry     beta= 0.70
     Davidson diagonalization with overlap
     ethr =  2.28E-09,  avg # of iterations =  5.0

     total cpu time spent up to now is       24.9 secs

     total energy              =   -1757.87069960 Ry
     estimated scf accuracy    <       0.00000767 Ry

     iteration # 21     ecut=    60.00 Ry     beta= 0.70
     Davidson diagonalization with overlap
     ethr =  1.37E-09,  avg # of iterations =  5.0

     total cpu time spent up to now is       25.9 secs

     total energy              =   -1757.87069874 Ry
     estimated scf accuracy    <       0.00000297 Ry

     iteration # 22     ecut=    60.00 Ry     beta= 0.70
     Davidson diagonalization with overlap
     ethr =  5.31E-10,  avg # of iterations =  7.0

     total cpu time spent up to now is       27.6 secs

     total energy              =   -1757.87070085 Ry
     estimated scf accuracy    <       0.00000422 Ry

     iteration # 23     ecut=    60.00 Ry     beta= 0.70
     Davidson diagonalization with overlap
     ethr =  5.31E-10,  avg # of iterations =  2.0

     total cpu time spent up to now is       28.4 secs

     total energy              =   -1757.87069936 Ry
     estimated scf accuracy    <       0.00000397 Ry

     iteration # 24     ecut=    60.00 Ry     beta= 0.70
     Davidson diagonalization with overlap
     ethr =  5.31E-10,  avg # of iterations =  6.0

     total cpu time spent up to now is       29.5 secs

     total energy              =   -1757.87069983 Ry
     estimated scf accuracy    <       0.00000054 Ry

     iteration # 25     ecut=    60.00 Ry     beta= 0.70
     Davidson diagonalization with overlap
     ethr =  9.65E-11,  avg # of iterations =  5.0

     total cpu time spent up to now is       30.6 secs

     total energy              =   -1757.87069984 Ry
     estimated scf accuracy    <       0.00000027 Ry

     iteration # 26     ecut=    60.00 Ry     beta= 0.70
     Davidson diagonalization with overlap
     ethr =  4.85E-11,  avg # of iterations =  6.0

     total cpu time spent up to now is       31.8 secs

     total energy              =   -1757.87069986 Ry
     estimated scf accuracy    <       0.00000018 Ry

     iteration # 27     ecut=    60.00 Ry     beta= 0.70
     Davidson diagonalization with overlap
     ethr =  3.13E-11,  avg # of iterations =  6.0

     total cpu time spent up to now is       32.8 secs

     total energy              =   -1757.87069985 Ry
     estimated scf accuracy    <       0.00000008 Ry

     iteration # 28     ecut=    60.00 Ry     beta= 0.70
     Davidson diagonalization with overlap
     ethr =  1.50E-11,  avg # of iterations =  6.0

     total cpu time spent up to now is       34.0 secs

     total energy              =   -1757.87069986 Ry
     estimated scf accuracy    <       0.00000003 Ry

     iteration # 29     ecut=    60.00 Ry     beta= 0.70
     Davidson diagonalization with overlap
     ethr =  6.02E-12,  avg # of iterations =  5.0

     total cpu time spent up to now is       35.0 secs

     total energy              =   -1757.87069986 Ry
     estimated scf accuracy    <       0.00000001 Ry

     iteration # 30     ecut=    60.00 Ry     beta= 0.70
     Davidson diagonalization with overlap
     ethr =  2.20E-12,  avg # of iterations =  7.0

     total cpu time spent up to now is       36.9 secs

     total energy              =   -1757.87069987 Ry
     estimated scf accuracy    <       0.00000005 Ry

     iteration # 31     ecut=    60.00 Ry     beta= 0.70
     Davidson diagonalization with overlap
     ethr =  2.20E-12,  avg # of iterations =  6.0

     total cpu time spent up to now is       37.9 secs

     total energy              =   -1757.87069987 Ry
     estimated scf accuracy    <       0.00000002 Ry

     iteration # 32     ecut=    60.00 Ry     beta= 0.70
     Davidson diagonalization with overlap
     ethr =  2.20E-12,  avg # of iterations =  2.0

     total cpu time spent up to now is       38.7 secs

     total energy              =   -1757.87069987 Ry
     estimated scf accuracy    <       0.00000002 Ry

     iteration # 33     ecut=    60.00 Ry     beta= 0.70
     Davidson diagonalization with overlap
     ethr =  2.20E-12,  avg # of iterations =  2.0

     total cpu time spent up to now is       39.6 secs

     total energy              =   -1757.87069986 Ry
     estimated scf accuracy    <       0.00000001 Ry

     iteration # 34     ecut=    60.00 Ry     beta= 0.70
     Davidson diagonalization with overlap
     ethr =  1.81E-12,  avg # of iterations =  6.0

     total cpu time spent up to now is       40.8 secs

     total energy              =   -1757.87069987 Ry
     estimated scf accuracy    <          3.6E-09 Ry

     iteration # 35     ecut=    60.00 Ry     beta= 0.70
     Davidson diagonalization with overlap
     ethr =  6.49E-13,  avg # of iterations =  2.0

     total cpu time spent up to now is       41.6 secs

     total energy              =   -1757.87069987 Ry
     estimated scf accuracy    <          2.4E-09 Ry

     iteration # 36     ecut=    60.00 Ry     beta= 0.70
     Davidson diagonalization with overlap
     ethr =  4.25E-13,  avg # of iterations =  9.0

     total cpu time spent up to now is       43.3 secs

     total energy              =   -1757.87069987 Ry
     estimated scf accuracy    <          5.4E-09 Ry

     iteration # 37     ecut=    60.00 Ry     beta= 0.70
     Davidson diagonalization with overlap
     ethr =  4.25E-13,  avg # of iterations =  2.0

     total cpu time spent up to now is       44.2 secs

     total energy              =   -1757.87069986 Ry
     estimated scf accuracy    <          2.4E-09 Ry

     iteration # 38     ecut=    60.00 Ry     beta= 0.70
     Davidson diagonalization with overlap
     ethr =  4.25E-13,  avg # of iterations =  6.0

     total cpu time spent up to now is       45.7 secs

     total energy              =   -1757.87069987 Ry
     estimated scf accuracy    <          9.1E-10 Ry

     iteration # 39     ecut=    60.00 Ry     beta= 0.70
     Davidson diagonalization with overlap
     ethr =  1.62E-13,  avg # of iterations =  4.0

     total cpu time spent up to now is       46.6 secs

     total energy              =   -1757.87069987 Ry
     estimated scf accuracy    <          3.8E-10 Ry

     iteration # 40     ecut=    60.00 Ry     beta= 0.70
     Davidson diagonalization with overlap
     ethr =  1.00E-13,  avg # of iterations =  5.0

     total cpu time spent up to now is       48.0 secs

     total energy              =   -1757.87069987 Ry
     estimated scf accuracy    <          3.9E-10 Ry

     iteration # 41     ecut=    60.00 Ry     beta= 0.70
     Davidson diagonalization with overlap
     ethr =  1.00E-13,  avg # of iterations =  2.0

     total cpu time spent up to now is       48.8 secs

     total energy              =   -1757.87069987 Ry
     estimated scf accuracy    <          1.7E-10 Ry

     iteration # 42     ecut=    60.00 Ry     beta= 0.70
     Davidson diagonalization with overlap
     ethr =  1.00E-13,  avg # of iterations =  6.0

     total cpu time spent up to now is       49.9 secs

     End of self-consistent calculation

          k = 0.0000 0.0000 0.0000 ( 47535 PWs)   bands (ev):

   -20.7071 -20.7071 -20.6733 -20.6733 -20.5730 -20.5727 -20.5713 -20.5711
   -19.6258 -19.6258 -19.6255 -19.6255 -17.4054 -17.4053 -17.4003 -17.4002
   -15.5804 -15.5774 -15.5710 -15.5664 -15.5238 -15.5172 -15.5117 -15.5071
   -15.2050 -15.1936 -15.1865 -15.1756 -13.9292 -13.9283 -13.9195 -13.9194
   -13.1613 -13.1524 -13.1452 -13.1343 -13.0156 -13.0066 -12.9908 -12.9879
   -12.9040 -12.8896 -12.8788 -12.8656 -12.7718 -12.7466 -12.6788 -12.6583
   -12.5140 -12.4969 -12.4939 -12.4801 -12.1787 -12.1659 -12.1623 -12.1528
   -11.5440 -11.5310 -11.5111 -11.4927 -11.3987 -11.3859 -11.3624 -11.3561
   -10.4774 -10.4743 -10.4669 -10.4649  -9.9233  -9.9217  -9.8993  -9.8978
    -9.3274  -9.3270  -9.3247  -9.3222  -9.2503  -9.2300  -9.2146  -9.1983
    -9.1902  -9.1617  -9.1576  -9.1537  -8.9560  -8.9480  -8.9385  -8.9259
    -8.2666  -8.2454  -8.2282  -8.1937  -8.0075  -7.9897  -7.9497  -7.9292
    -7.7144  -7.7127  -7.6050  -7.5871  -7.3038  -7.2785  -7.2310  -7.2268
    -7.1728  -7.1659  -7.1636  -7.1441  -6.9724  -6.9676  -6.8600  -6.8558
    -6.3407  -6.3317  -6.3112  -6.2934  -6.1485  -6.1373  -6.1024  -6.0629
    -6.0543  -6.0312  -6.0201  -6.0171  -5.7396  -5.7257  -5.6750  -5.6444
    -5.6387  -5.6334  -5.5884  -5.5879  -5.5757  -5.5409  -5.5096  -5.4718
    -5.3898  -5.3827  -5.3814  -5.3738  -5.3685  -5.3503  -5.3469  -5.3248
    -5.1235  -5.1155  -5.0847  -5.0599  -4.9369  -4.9310  -4.8718  -4.8664
    -4.6028  -4.5824  -4.5750  -4.5746  -4.5126  -4.4398  -4.4268  -4.4015
    -4.3860  -4.3301  -4.3023  -4.2972  -4.2911  -4.2594  -4.2498  -4.1812
    -4.1777  -4.1282  -4.0801  -4.0677  -3.9493  -3.9478  -3.9036  -3.8975
    -3.8056  -3.8022  -3.7790  -3.7622  -3.7291  -3.7201  -3.7194  -3.7185
    -3.5865  -3.5805  -3.5789  -3.5654  -3.4876  -3.4454  -3.3647  -3.3160
    -3.3059  -3.2835  -3.2691  -3.2319  -3.2017  -3.1920  -3.1628  -3.1458
    -2.8707  -2.8534  -2.8526  -2.8444  -2.6809  -2.6781  -2.6265  -2.6013
    -2.5599  -2.5082  -2.4955  -2.4465  -2.4454  -2.4412  -2.4230  -2.4224
    -2.3923  -2.3861  -2.3676  -2.3610  -2.3084  -2.2737  -2.2117  -2.2107
    -1.9620  -1.9611  -1.8991  -1.8766  -1.8407  -1.8219  -1.7937  -1.7844
    -1.6182  -1.6146  -1.6113  -1.6056  -1.4208  -1.4140  -1.3349  -1.2807
    -1.2639  -1.2219  -1.1210  -1.1181  -0.8033  -0.7925  -0.7552  -0.7506
    -0.6321  -0.6295  -0.5853  -0.5812  -0.1514  -0.1486   0.0521   0.0551
     0.2453   0.2775   0.2849   0.3282   0.3597   0.3820   0.3968   0.4444
     0.8530   0.8721   0.8916   0.8973   0.9101   0.9203   0.9362   0.9527
     0.9594   0.9724   0.9756   0.9931   1.0718   1.0787   1.1938   1.1988

     highest occupied level (ev):     1.1988

!    total energy              =   -1757.87069987 Ry
     estimated scf accuracy    <          5.9E-11 Ry

     The total energy is the sum of the following terms:
     one-electron contribution =   -1404.70086835 Ry
     hartree contribution      =     906.74977077 Ry
     xc contribution           =    -631.30966298 Ry
     ewald contribution        =    -628.60993931 Ry

     convergence has been achieved in  42 iterations

     Forces acting on atoms (cartesian axes, Ry/au):

     atom    1 type  1   force =    -0.02088226   -0.03413680   -0.16513016
     atom    2 type  1   force =    -0.01458291   -0.00149842   -0.07245804
     atom    3 type  1   force =    -0.01731135   -0.05520958   -0.03867220
     atom    4 type  2   force =     0.09497221    0.00483765    0.05871346
     atom    5 type  3   force =     0.10869747   -0.14975202   -0.12154465
     atom    6 type  4   force =    -0.15884557    0.23547245    0.17602688
     atom    7 type  3   force =    -0.03216156   -0.03376139   -0.23206749
     atom    8 type  4   force =     0.05780635    0.03120661    0.32914249
     atom    9 type  3   force =    -0.14546295    0.14077573   -0.08903702
     atom   10 type  4   force =     0.21034404   -0.19850677    0.16028108
     atom   11 type  3   force =     0.01741349   -0.03917484   -0.03857445
     atom   12 type  3   force =     0.02319660    0.02764373    0.22418819
     atom   13 type  4   force =    -0.05248985   -0.03902482   -0.32788800
     atom   14 type  3   force =    -0.03128668    0.03083670   -0.02157183
     atom   15 type  3   force =     0.09162342   -0.02434701    0.22473903
     atom   16 type  4   force =    -0.04538085   -0.08241801   -0.32838525
     atom   17 type  3   force =    -0.06917740    0.01335037   -0.19625431
     atom   18 type  4   force =     0.03779124    0.09335690    0.31963281
     atom   19 type  3   force =     0.00856741    0.01742752    0.08677625
     atom   20 type  3   force =     0.01437185   -0.02292693   -0.01735674
     atom   21 type  3   force =     0.01678678    0.06493668    0.22928772
     atom   22 type  4   force =    -0.02269684   -0.07778043   -0.32431633
     atom   23 type  3   force =     0.14262342   -0.14131224    0.13416430
     atom   24 type  4   force =    -0.19604325    0.17788716   -0.20644699
     atom   25 type  3   force =    -0.02733813    0.05674273    0.02348828
     atom   26 type  3   force =    -0.00998958   -0.07324821   -0.21601440
     atom   27 type  4   force =     0.03053242    0.08412075    0.32224336
     atom   28 type  3   force =    -0.14116237    0.12166404   -0.13928957
     atom   29 type  4   force =     0.19955143   -0.16962087    0.20765392
     atom   30 type  3   force =     0.06358140    0.19136463    0.17917987
     atom   31 type  4   force =    -0.15609298   -0.21051085   -0.23161573
     atom   32 type  3   force =     0.02091379   -0.04334102   -0.01733222
     atom   33 type  3   force =     0.06896661    0.15903195    0.16102470
     atom   34 type  4   force =    -0.11142469   -0.21956583   -0.22641247
     atom   35 type  3   force =    -0.03082036   -0.01304408   -0.02932083
     atom   36 type  3   force =     0.12373720   -0.16936188   -0.06386436
     atom   37 type  4   force =    -0.18588577    0.25715030    0.09502422
     atom   38 type  3   force =    -0.07047021   -0.15906309   -0.16622972
     atom   39 type  4   force =     0.10611864    0.21913990    0.23133245
     atom   40 type  3   force =    -0.20657749    0.03608022   -0.08397667
     atom   41 type  4   force =     0.29960662   -0.03756376    0.13399648
     atom   42 type  3   force =    -0.11938575    0.13107167   -0.06386168
     atom   43 type  4   force =     0.08150331   -0.14658712   -0.18528858
     atom   44 type  4   force =    -0.12191585   -0.14163572    0.18549848
     atom   45 type  4   force =     0.19863878    0.12641075    0.10588402
     atom   46 type  3   force =     0.09876797   -0.15484083   -0.00473197
     atom   47 type  4   force =    -0.19963584   -0.01973234   -0.15106094
     atom   48 type  4   force =     0.14729366    0.20527956   -0.07250679
     atom   49 type  4   force =    -0.07832311    0.03124725    0.24500586
     atom   50 type  1   force =     0.02088226   -0.03413680    0.16513016
     atom   51 type  1   force =     0.01458291   -0.00149842    0.07245804
     atom   52 type  1   force =     0.01731135   -0.05520958    0.03867220
     atom   53 type  2   force =    -0.09497221    0.00483765   -0.05871346
     atom   54 type  3   force =    -0.10869747   -0.14975202    0.12154465
     atom   55 type  4   force =     0.15884557    0.23547245   -0.17602688
     atom   56 type  3   force =     0.03216156   -0.03376139    0.23206749
     atom   57 type  4   force =    -0.05780635    0.03120661   -0.32914249
     atom   58 type  3   force =     0.14546295    0.14077573    0.08903702
     atom   59 type  4   force =    -0.21034404   -0.19850677   -0.16028108
     atom   60 type  3   force =    -0.01741349   -0.03917484    0.03857445
     atom   61 type  3   force =    -0.02319660    0.02764373   -0.22418819
     atom   62 type  4   force =     0.05248985   -0.03902482    0.32788800
     atom   63 type  3   force =     0.03128668    0.03083670    0.02157183
     atom   64 type  3   force =    -0.09162342   -0.02434701   -0.22473903
     atom   65 type  4   force =     0.04538085   -0.08241801    0.32838525
     atom   66 type  3   force =     0.06917740    0.01335037    0.19625431
     atom   67 type  4   force =    -0.03779124    0.09335690   -0.31963281
     atom   68 type  3   force =    -0.00856741    0.01742752   -0.08677625
     atom   69 type  3   force =    -0.01437185   -0.02292693    0.01735674
     atom   70 type  3   force =    -0.01678678    0.06493668   -0.22928772
     atom   71 type  4   force =     0.02269684   -0.07778043    0.32431633
     atom   72 type  3   force =    -0.14262342   -0.14131224   -0.13416430
     atom   73 type  4   force =     0.19604325    0.17788716    0.20644699
     atom   74 type  3   force =     0.02733813    0.05674273   -0.02348828
     atom   75 type  3   force =     0.00998958   -0.07324821    0.21601440
     atom   76 type  4   force =    -0.03053242    0.08412075   -0.32224336
     atom   77 type  3   force =     0.14116237    0.12166404    0.13928957
     atom   78 type  4   force =    -0.19955143   -0.16962087   -0.20765392
     atom   79 type  3   force =    -0.06358140    0.19136463   -0.17917987
     atom   80 type  4   force =     0.15609298   -0.21051085    0.23161573
     atom   81 type  3   force =    -0.02091379   -0.04334102    0.01733222
     atom   82 type  3   force =    -0.06896661    0.15903195   -0.16102470
     atom   83 type  4   force =     0.11142469   -0.21956583    0.22641247
     atom   84 type  3   force =     0.03082036   -0.01304408    0.02932083
     atom   85 type  3   force =    -0.12373720   -0.16936188    0.06386436
     atom   86 type  4   force =     0.18588577    0.25715030   -0.09502422
     atom   87 type  3   force =     0.07047021   -0.15906309    0.16622972
     atom   88 type  4   force =    -0.10611864    0.21913990   -0.23133245
     atom   89 type  3   force =     0.20657749    0.03608022    0.08397667
     atom   90 type  4   force =    -0.29960662   -0.03756376   -0.13399648
     atom   91 type  3   force =     0.11938575    0.13107167    0.06386168
     atom   92 type  4   force =    -0.08150331   -0.14658712    0.18528858
     atom   93 type  4   force =     0.12191585   -0.14163572   -0.18549848
     atom   94 type  4   force =    -0.19863878    0.12641075   -0.10588402
     atom   95 type  3   force =    -0.09876797   -0.15484083    0.00473197
     atom   96 type  4   force =     0.19963584   -0.01973234    0.15106094
     atom   97 type  4   force =    -0.14729366    0.20527956    0.07250679
     atom   98 type  4   force =     0.07832311    0.03124725   -0.24500586
     atom   99 type  1   force =     0.02088226    0.03413680    0.16513016
     atom  100 type  1   force =     0.01458291    0.00149842    0.07245804
     atom  101 type  1   force =     0.01731135    0.05520958    0.03867220
     atom  102 type  2   force =    -0.09497221   -0.00483765   -0.05871346
     atom  103 type  3   force =    -0.10869747    0.14975202    0.12154465
     atom  104 type  4   force =     0.15884557   -0.23547245   -0.17602688
     atom  105 type  3   force =     0.03216156    0.03376139    0.23206749
     atom  106 type  4   force =    -0.05780635   -0.03120661   -0.32914249
     atom  107 type  3   force =     0.14546295   -0.14077573    0.08903702
     atom  108 type  4   force =    -0.21034404    0.19850677   -0.16028108
     atom  109 type  3   force =    -0.01741349    0.03917484    0.03857445
     atom  110 type  3   force =    -0.02319660   -0.02764373   -0.22418819
     atom  111 type  4   force =     0.05248985    0.03902482    0.32788800
     atom  112 type  3   force =     0.03128668   -0.03083670    0.02157183
     atom  113 type  3   force =    -0.09162342    0.02434701   -0.22473903
     atom  114 type  4   force =     0.04538085    0.08241801    0.32838525
     atom  115 type  3   force =     0.06917740   -0.01335037    0.19625431
     atom  116 type  4   force =    -0.03779124   -0.09335690   -0.31963281
     atom  117 type  3   force =    -0.00856741   -0.01742752   -0.08677625
     atom  118 type  3   force =    -0.01437185    0.02292693    0.01735674
     atom  119 type  3   force =    -0.01678678   -0.06493668   -0.22928772
     atom  120 type  4   force =     0.02269684    0.07778043    0.32431633
     atom  121 type  3   force =    -0.14262342    0.14131224   -0.13416430
     atom  122 type  4   force =     0.19604325   -0.17788716    0.20644699
     atom  123 type  3   force =     0.02733813   -0.05674273   -0.02348828
     atom  124 type  3   force =     0.00998958    0.07324821    0.21601440
     atom  125 type  4   force =    -0.03053242   -0.08412075   -0.32224336
     atom  126 type  3   force =     0.14116237   -0.12166404    0.13928957
     atom  127 type  4   force =    -0.19955143    0.16962087   -0.20765392
     atom  128 type  3   force =    -0.06358140   -0.19136463   -0.17917987
     atom  129 type  4   force =     0.15609298    0.21051085    0.23161573
     atom  130 type  3   force =    -0.02091379    0.04334102    0.01733222
     atom  131 type  3   force =    -0.06896661   -0.15903195   -0.16102470
     atom  132 type  4   force =     0.11142469    0.21956583    0.22641247
     atom  133 type  3   force =     0.03082036    0.01304408    0.02932083
     atom  134 type  3   force =    -0.12373720    0.16936188    0.06386436
     atom  135 type  4   force =     0.18588577   -0.25715030   -0.09502422
     atom  136 type  3   force =     0.07047021    0.15906309    0.16622972
     atom  137 type  4   force =    -0.10611864   -0.21913990   -0.23133245
     atom  138 type  3   force =     0.20657749   -0.03608022    0.08397667
     atom  139 type  4   force =    -0.29960662    0.03756376   -0.13399648
     atom  140 type  3   force =     0.11938575   -0.13107167    0.06386168
     atom  141 type  4   force =    -0.08150331    0.14658712    0.18528858
     atom  142 type  4   force =     0.12191585    0.14163572   -0.18549848
     atom  143 type  4   force =    -0.19863878   -0.12641075   -0.10588402
     atom  144 type  3   force =    -0.09876797    0.15484083    0.00473197
     atom  145 type  4   force =     0.19963584    0.01973234    0.15106094
     atom  146 type  4   force =    -0.14729366   -0.20527956    0.07250679
     atom  147 type  4   force =     0.07832311   -0.03124725   -0.24500586
     atom  148 type  1   force =    -0.02088226    0.03413680   -0.16513016
     atom  149 type  1   force =    -0.01458291    0.00149842   -0.07245804
     atom  150 type  1   force =    -0.01731135    0.05520958   -0.03867220
     atom  151 type  2   force =     0.09497221   -0.00483765    0.05871346
     atom  152 type  3   force =     0.10869747    0.14975202   -0.12154465
     atom  153 type  4   force =    -0.15884557   -0.23547245    0.17602688
     atom  154 type  3   force =    -0.03216156    0.03376139   -0.23206749
     atom  155 type  4   force =     0.05780635   -0.03120661    0.32914249
     atom  156 type  3   force =    -0.14546295   -0.14077573   -0.08903702
     atom  157 type  4   force =     0.21034404    0.19850677    0.16028108
     atom  158 type  3   force =     0.01741349    0.03917484   -0.03857445
     atom  159 type  3   force =     0.02319660   -0.02764373    0.22418819
     atom  160 type  4   force =    -0.05248985    0.03902482   -0.32788800
     atom  161 type  3   force =    -0.03128668   -0.03083670   -0.02157183
     atom  162 type  3   force =     0.09162342    0.02434701    0.22473903
     atom  163 type  4   force =    -0.04538085    0.08241801   -0.32838525
     atom  164 type  3   force =    -0.06917740   -0.01335037   -0.19625431
     atom  165 type  4   force =     0.03779124   -0.09335690    0.31963281
     atom  166 type  3   force =     0.00856741   -0.01742752    0.08677625
     atom  167 type  3   force =     0.01437185    0.02292693   -0.01735674
     atom  168 type  3   force =     0.01678678   -0.06493668    0.22928772
     atom  169 type  4   force =    -0.02269684    0.07778043   -0.32431633
     atom  170 type  3   force =     0.14262342    0.14131224    0.13416430
     atom  171 type  4   force =    -0.19604325   -0.17788716   -0.20644699
     atom  172 type  3   force =    -0.02733813   -0.05674273    0.02348828
     atom  173 type  3   force =    -0.00998958    0.07324821   -0.21601440
     atom  174 type  4   force =     0.03053242   -0.08412075    0.32224336
     atom  175 type  3   force =    -0.14116237   -0.12166404   -0.13928957
     atom  176 type  4   force =     0.19955143    0.16962087    0.20765392
     atom  177 type  3   force =     0.06358140   -0.19136463    0.17917987
     atom  178 type  4   force =    -0.15609298    0.21051085   -0.23161573
     atom  179 type  3   force =     0.02091379    0.04334102   -0.01733222
     atom  180 type  3   force =     0.06896661   -0.15903195    0.16102470
     atom  181 type  4   force =    -0.11142469    0.21956583   -0.22641247
     atom  182 type  3   force =    -0.03082036    0.01304408   -0.02932083
     atom  183 type  3   force =     0.12373720    0.16936188   -0.06386436
     atom  184 type  4   force =    -0.18588577   -0.25715030    0.09502422
     atom  185 type  3   force =    -0.07047021    0.15906309   -0.16622972
     atom  186 type  4   force =     0.10611864   -0.21913990    0.23133245
     atom  187 type  3   force =    -0.20657749   -0.03608022   -0.08397667
     atom  188 type  4   force =     0.29960662    0.03756376    0.13399648
     atom  189 type  3   force =    -0.11938575   -0.13107167   -0.06386168
     atom  190 type  4   force =     0.08150331    0.14658712   -0.18528858
     atom  191 type  4   force =    -0.12191585    0.14163572    0.18549848
     atom  192 type  4   force =     0.19863878   -0.12641075    0.10588402
     atom  193 type  3   force =     0.09876797    0.15484083   -0.00473197
     atom  194 type  4   force =    -0.19963584    0.01973234   -0.15106094
     atom  195 type  4   force =     0.14729366   -0.20527956   -0.07250679
     atom  196 type  4   force =    -0.07832311   -0.03124725    0.24500586
     The non-local contrib.  to forces
     atom    1 type  1   force =     0.28339266    0.50669178    2.37404506
     atom    2 type  1   force =     0.41313569    0.19731894    2.24721956
     atom    3 type  1   force =     0.83126840    1.66093144    1.32293646
     atom    4 type  2   force =    -0.70174325   -0.82826408   -1.05112421
     atom    5 type  3   force =     0.07559735   -0.09218939   -0.12768764
     atom    6 type  4   force =     0.05645443   -0.08442989   -0.06295946
     atom    7 type  3   force =    -0.00799011   -0.05728016   -0.21845156
     atom    8 type  4   force =    -0.02043010   -0.01272323   -0.12014566
     atom    9 type  3   force =    -0.11936588    0.08681100   -0.13562114
     atom   10 type  4   force =    -0.07613158    0.07246303   -0.05736758
     atom   11 type  3   force =     0.21883983   -0.35577175   -0.32009974
     atom   12 type  3   force =     0.04904439   -0.00950005    0.21598075
     atom   13 type  4   force =     0.02055880    0.01391187    0.11873989
     atom   14 type  3   force =    -0.05380980    0.04370190   -0.07063591
     atom   15 type  3   force =     0.12017024   -0.07485270    0.21237077
     atom   16 type  4   force =     0.02074315    0.02557413    0.11825222
     atom   17 type  3   force =    -0.07696392    0.06223995   -0.13982614
     atom   18 type  4   force =    -0.01762809   -0.03063099   -0.11462989
     atom   19 type  3   force =    -0.01875045   -0.01986881   -0.11335620
     atom   20 type  3   force =     0.02787414   -0.01784220   -0.01343542
     atom   21 type  3   force =     0.02579647    0.06245452    0.22575360
     atom   22 type  4   force =     0.00856506    0.02876579    0.11917094
     atom   23 type  3   force =     0.10991302   -0.08410257    0.13808326
     atom   24 type  4   force =     0.07084153   -0.06349363    0.07395630
     atom   25 type  3   force =    -0.09989730    0.27085956    0.10708727
     atom   26 type  3   force =    -0.03068928   -0.07438078   -0.18373344
     atom   27 type  4   force =    -0.01237063   -0.03078136   -0.11625485
     atom   28 type  3   force =    -0.10407661    0.08010576   -0.11029712
     atom   29 type  4   force =    -0.07207485    0.06290792   -0.07391976
     atom   30 type  3   force =     0.18651676    0.17815632    0.24582549
     atom   31 type  4   force =     0.04949564    0.07937944    0.08235742
     atom   32 type  3   force =     0.02481597   -0.09846648   -0.03931942
     atom   33 type  3   force =     0.05460200    0.17463365    0.18390094
     atom   34 type  4   force =     0.04065250    0.08131150    0.08271834
     atom   35 type  3   force =    -0.46466362    0.02281850   -0.22924753
     atom   36 type  3   force =     0.08797566   -0.16390029   -0.10130485
     atom   37 type  4   force =     0.06883457   -0.09377551   -0.03340382
     atom   38 type  3   force =    -0.09008917   -0.09994067   -0.12894865
     atom   39 type  4   force =    -0.03910959   -0.07807882   -0.08363296
     atom   40 type  3   force =    -0.19949415    0.00521167   -0.10058807
     atom   41 type  4   force =    -0.11011898    0.01358892   -0.04880700
     atom   42 type  3   force =    -0.39934984    0.40532855   -0.23072472
     atom   43 type  4   force =    -0.04111735    0.07036116    0.07756978
     atom   44 type  4   force =     0.05174077    0.06023384   -0.07793225
     atom   45 type  4   force =    -0.08532074   -0.05530551   -0.04555258
     atom   46 type  3   force =     0.29787979   -0.51463289   -0.04657287
     atom   47 type  4   force =     0.09093324    0.00146940    0.06466338
     atom   48 type  4   force =    -0.06377735   -0.08661830    0.03048128
     atom   49 type  4   force =     0.03183802   -0.01261537   -0.10587883
     atom   50 type  1   force =    -0.28339266    0.50669178   -2.37404506
     atom   51 type  1   force =    -0.41313569    0.19731894   -2.24721956
     atom   52 type  1   force =    -0.83126840    1.66093144   -1.32293646
     atom   53 type  2   force =     0.70174325   -0.82826408    1.05112421
     atom   54 type  3   force =    -0.07559735   -0.09218939    0.12768764
     atom   55 type  4   force =    -0.05645443   -0.08442989    0.06295946
     atom   56 type  3   force =     0.00799011   -0.05728016    0.21845156
     atom   57 type  4   force =     0.02043010   -0.01272323    0.12014566
     atom   58 type  3   force =     0.11936588    0.08681100    0.13562114
     atom   59 type  4   force =     0.07613158    0.07246303    0.05736758
     atom   60 type  3   force =    -0.21883983   -0.35577175    0.32009974
     atom   61 type  3   force =    -0.04904439   -0.00950005   -0.21598075
     atom   62 type  4   force =    -0.02055880    0.01391187   -0.11873989
     atom   63 type  3   force =     0.05380980    0.04370190    0.07063591
     atom   64 type  3   force =    -0.12017024   -0.07485270   -0.21237077
     atom   65 type  4   force =    -0.02074315    0.02557413   -0.11825222
     atom   66 type  3   force =     0.07696392    0.06223995    0.13982614
     atom   67 type  4   force =     0.01762809   -0.03063099    0.11462989
     atom   68 type  3   force =     0.01875045   -0.01986881    0.11335620
     atom   69 type  3   force =    -0.02787414   -0.01784220    0.01343542
     atom   70 type  3   force =    -0.02579647    0.06245452   -0.22575360
     atom   71 type  4   force =    -0.00856506    0.02876579   -0.11917094
     atom   72 type  3   force =    -0.10991302   -0.08410257   -0.13808326
     atom   73 type  4   force =    -0.07084153   -0.06349363   -0.07395630
     atom   74 type  3   force =     0.09989730    0.27085956   -0.10708727
     atom   75 type  3   force =     0.03068928   -0.07438078    0.18373344
     atom   76 type  4   force =     0.01237063   -0.03078136    0.11625485
     atom   77 type  3   force =     0.10407661    0.08010576    0.11029712
     atom   78 type  4   force =     0.07207485    0.06290792    0.07391976
     atom   79 type  3   force =    -0.18651676    0.17815632   -0.24582549
     atom   80 type  4   force =    -0.04949564    0.07937944   -0.08235742
     atom   81 type  3   force =    -0.02481597   -0.09846648    0.03931942
     atom   82 type  3   force =    -0.05460200    0.17463365   -0.18390094
     atom   83 type  4   force =    -0.04065250    0.08131150   -0.08271834
     atom   84 type  3   force =     0.46466362    0.02281850    0.22924753
     atom   85 type  3   force =    -0.08797566   -0.16390029    0.10130485
     atom   86 type  4   force =    -0.06883457   -0.09377551    0.03340382
     atom   87 type  3   force =     0.09008917   -0.09994067    0.12894865
     atom   88 type  4   force =     0.03910959   -0.07807882    0.08363296
     atom   89 type  3   force =     0.19949415    0.00521167    0.10058807
     atom   90 type  4   force =     0.11011898    0.01358892    0.04880700
     atom   91 type  3   force =     0.39934984    0.40532855    0.23072472
     atom   92 type  4   force =     0.04111735    0.07036116   -0.07756978
     atom   93 type  4   force =    -0.05174077    0.06023384    0.07793225
     atom   94 type  4   force =     0.08532074   -0.05530551    0.04555258
     atom   95 type  3   force =    -0.29787979   -0.51463289    0.04657287
     atom   96 type  4   force =    -0.09093324    0.00146940   -0.06466338
     atom   97 type  4   force =     0.06377735   -0.08661830   -0.03048128
     atom   98 type  4   force =    -0.03183802   -0.01261537    0.10587883
     atom   99 type  1   force =    -0.28339266   -0.50669178   -2.37404506
     atom  100 type  1   force =    -0.41313569   -0.19731894   -2.24721956
     atom  101 type  1   force =    -0.83126840   -1.66093144   -1.32293646
     atom  102 type  2   force =     0.70174325    0.82826408    1.05112421
     atom  103 type  3   force =    -0.07559735    0.09218939    0.12768764
     atom  104 type  4   force =    -0.05645443    0.08442989    0.06295946
     atom  105 type  3   force =     0.00799011    0.05728016    0.21845156
     atom  106 type  4   force =     0.02043010    0.01272323    0.12014566
     atom  107 type  3   force =     0.11936588   -0.08681100    0.13562114
     atom  108 type  4   force =     0.07613158   -0.07246303    0.05736758
     atom  109 type  3   force =    -0.21883983    0.35577175    0.32009974
     atom  110 type  3   force =    -0.04904439    0.00950005   -0.21598075
     atom  111 type  4   force =    -0.02055880   -0.01391187   -0.11873989
     atom  112 type  3   force =     0.05380980   -0.04370190    0.07063591
     atom  113 type  3   force =    -0.12017024    0.07485270   -0.21237077
     atom  114 type  4   force =    -0.02074315   -0.02557413   -0.11825222
     atom  115 type  3   force =     0.07696392   -0.06223995    0.13982614
     atom  116 type  4   force =     0.01762809    0.03063099    0.11462989
     atom  117 type  3   force =     0.01875045    0.01986881    0.11335620
     atom  118 type  3   force =    -0.02787414    0.01784220    0.01343542
     atom  119 type  3   force =    -0.02579647   -0.06245452   -0.22575360
     atom  120 type  4   force =    -0.00856506   -0.02876579   -0.11917094
     atom  121 type  3   force =    -0.10991302    0.08410257   -0.13808326
     atom  122 type  4   force =    -0.07084153    0.06349363   -0.07395630
     atom  123 type  3   force =     0.09989730   -0.27085956   -0.10708727
     atom  124 type  3   force =     0.03068928    0.07438078    0.18373344
     atom  125 type  4   force =     0.01237063    0.03078136    0.11625485
     atom  126 type  3   force =     0.10407661   -0.08010576    0.11029712
     atom  127 type  4   force =     0.07207485   -0.06290792    0.07391976
     atom  128 type  3   force =    -0.18651676   -0.17815632   -0.24582549
     atom  129 type  4   force =    -0.04949564   -0.07937944   -0.08235742
     atom  130 type  3   force =    -0.02481597    0.09846648    0.03931942
     atom  131 type  3   force =    -0.05460200   -0.17463365   -0.18390094
     atom  132 type  4   force =    -0.04065250   -0.08131150   -0.08271834
     atom  133 type  3   force =     0.46466362   -0.02281850    0.22924753
     atom  134 type  3   force =    -0.08797566    0.16390029    0.10130485
     atom  135 type  4   force =    -0.06883457    0.09377551    0.03340382
     atom  136 type  3   force =     0.09008917    0.09994067    0.12894865
     atom  137 type  4   force =     0.03910959    0.07807882    0.08363296
     atom  138 type  3   force =     0.19949415   -0.00521167    0.10058807
     atom  139 type  4   force =     0.11011898   -0.01358892    0.04880700
     atom  140 type  3   force =     0.39934984   -0.40532855    0.23072472
     atom  141 type  4   force =     0.04111735   -0.07036116   -0.07756978
     atom  142 type  4   force =    -0.05174077   -0.06023384    0.07793225
     atom  143 type  4   force =     0.08532074    0.05530551    0.04555258
     atom  144 type  3   force =    -0.29787979    0.51463289    0.04657287
     atom  145 type  4   force =    -0.09093324   -0.00146940   -0.06466338
     atom  146 type  4   force =     0.06377735    0.08661830   -0.03048128
     atom  147 type  4   force =    -0.03183802    0.01261537    0.10587883
     atom  148 type  1   force =     0.28339266   -0.50669178    2.37404506
     atom  149 type  1   force =     0.41313569   -0.19731894    2.24721956
     atom  150 type  1   force =     0.83126840   -1.66093144    1.32293646
     atom  151 type  2   force =    -0.70174325    0.82826408   -1.05112421
     atom  152 type  3   force =     0.07559735    0.09218939   -0.12768764
     atom  153 type  4   force =     0.05645443    0.08442989   -0.06295946
     atom  154 type  3   force =    -0.00799011    0.05728016   -0.21845156
     atom  155 type  4   force =    -0.02043010    0.01272323   -0.12014566
     atom  156 type  3   force =    -0.11936588   -0.08681100   -0.13562114
     atom  157 type  4   force =    -0.07613158   -0.07246303   -0.05736758
     atom  158 type  3   force =     0.21883983    0.35577175   -0.32009974
     atom  159 type  3   force =     0.04904439    0.00950005    0.21598075
     atom  160 type  4   force =     0.02055880   -0.01391187    0.11873989
     atom  161 type  3   force =    -0.05380980   -0.04370190   -0.07063591
     atom  162 type  3   force =     0.12017024    0.07485270    0.21237077
     atom  163 type  4   force =     0.02074315   -0.02557413    0.11825222
     atom  164 type  3   force =    -0.07696392   -0.06223995   -0.13982614
     atom  165 type  4   force =    -0.01762809    0.03063099   -0.11462989
     atom  166 type  3   force =    -0.01875045    0.01986881   -0.11335620
     atom  167 type  3   force =     0.02787414    0.01784220   -0.01343542
     atom  168 type  3   force =     0.02579647   -0.06245452    0.22575360
     atom  169 type  4   force =     0.00856506   -0.02876579    0.11917094
     atom  170 type  3   force =     0.10991302    0.08410257    0.13808326
     atom  171 type  4   force =     0.07084153    0.06349363    0.07395630
     atom  172 type  3   force =    -0.09989730   -0.27085956    0.10708727
     atom  173 type  3   force =    -0.03068928    0.07438078   -0.18373344
     atom  174 type  4   force =    -0.01237063    0.03078136   -0.11625485
     atom  175 type  3   force =    -0.10407661   -0.08010576   -0.11029712
     atom  176 type  4   force =    -0.07207485   -0.06290792   -0.07391976
     atom  177 type  3   force =     0.18651676   -0.17815632    0.24582549
     atom  178 type  4   force =     0.04949564   -0.07937944    0.08235742
     atom  179 type  3   force =     0.02481597    0.09846648   -0.03931942
     atom  180 type  3   force =     0.05460200   -0.17463365    0.18390094
     atom  181 type  4   force =     0.04065250   -0.08131150    0.08271834
     atom  182 type  3   force =    -0.46466362   -0.02281850   -0.22924753
     atom  183 type  3   force =     0.08797566    0.16390029   -0.10130485
     atom  184 type  4   force =     0.06883457    0.09377551   -0.03340382
     atom  185 type  3   force =    -0.09008917    0.09994067   -0.12894865
     atom  186 type  4   force =    -0.03910959    0.07807882   -0.08363296
     atom  187 type  3   force =    -0.19949415   -0.00521167   -0.10058807
     atom  188 type  4   force =    -0.11011898   -0.01358892   -0.04880700
     atom  189 type  3   force =    -0.39934984   -0.40532855   -0.23072472
     atom  190 type  4   force =    -0.04111735   -0.07036116    0.07756978
     atom  191 type  4   force =     0.05174077   -0.06023384   -0.07793225
     atom  192 type  4   force =    -0.08532074    0.05530551   -0.04555258
     atom  193 type  3   force =     0.29787979    0.51463289   -0.04657287
     atom  194 type  4   force =     0.09093324   -0.00146940    0.06466338
     atom  195 type  4   force =    -0.06377735    0.08661830    0.03048128
     atom  196 type  4   force =     0.03183802    0.01261537   -0.10587883
     The ionic contribution  to forces
     atom    1 type  1   force =    -0.64739159   -2.80020101  -10.74517411
     atom    2 type  1   force =    -0.07705629   -2.32601867   -7.24587568
     atom    3 type  1   force =    -6.06224704   -5.74729178   -3.90515546
     atom    4 type  2   force =     4.25741493    3.40490183    6.42309368
     atom    5 type  3   force =    -1.94678453    2.73230967    4.56749789
     atom    6 type  4   force =    -1.57273726    2.24519728    2.32736168
     atom    7 type  3   force =     0.04984264    0.49356877    4.98634565
     atom    8 type  4   force =     0.18033758    0.40775625    2.86341497
     atom    9 type  3   force =     2.02729443   -1.76339071    4.38047203
     atom   10 type  4   force =     1.94406229   -1.85460463    1.97754932
     atom   11 type  3   force =    -0.24731185    0.60705851    1.52330492
     atom   12 type  3   force =    -0.68591090    0.10367380   -3.02967654
     atom   13 type  4   force =    -0.51933025   -0.28672238   -3.09581285
     atom   14 type  3   force =    -0.92025583    1.28897665    0.55220662
     atom   15 type  3   force =     1.05185943   -1.01529248   -1.17038570
     atom   16 type  4   force =    -0.08675533   -0.78601005   -3.02389778
     atom   17 type  3   force =     0.68313372    1.08876121    3.92684022
     atom   18 type  4   force =     0.53109965    0.79962465    3.64329272
     atom   19 type  3   force =     1.10371098    0.57059261    4.26897120
     atom   20 type  3   force =     0.84915632   -0.97580254    0.98895126
     atom   21 type  3   force =    -1.07426069   -0.19101902   -3.30471713
     atom   22 type  4   force =    -0.52344055   -0.47836887   -3.00527395
     atom   23 type  3   force =    -2.12756409    1.43823272   -2.73297644
     atom   24 type  4   force =    -1.77957279    1.55993944   -2.10511080
     atom   25 type  3   force =     0.16166374    0.32499103    1.72415896
     atom   26 type  3   force =     1.69739867    0.27063169    6.06915264
     atom   27 type  4   force =     0.73624506    0.58509830    3.46128479
     atom   28 type  3   force =     2.63901266   -1.69255513    5.19670090
     atom   29 type  4   force =     2.03378309   -1.52246128    2.75503347
     atom   30 type  3   force =    -2.81526063   -0.36237868   -0.78865350
     atom   31 type  4   force =    -1.39567367   -1.83266815   -1.90587943
     atom   32 type  3   force =     1.11253925   -1.40352467    0.68214843
     atom   33 type  3   force =    -1.31943489   -3.00904132   -1.80673828
     atom   34 type  4   force =    -1.24502973   -2.08206899   -1.89224698
     atom   35 type  3   force =     0.04552851   -0.39651673    1.03463647
     atom   36 type  3   force =    -1.25503815    3.41670006    2.74170261
     atom   37 type  4   force =    -1.58116084    2.50731348    1.08002344
     atom   38 type  3   force =     1.89622434    2.66543826    4.15250467
     atom   39 type  4   force =     1.24308288    1.97270794    2.44657348
     atom   40 type  3   force =     3.95911981    0.17305636    3.50170288
     atom   41 type  4   force =     2.93223840   -0.13756396    1.84103318
     atom   42 type  3   force =     3.55720891   -3.57063186    2.14363218
     atom   43 type  4   force =     1.35155185   -1.87531709   -1.52873275
     atom   44 type  4   force =    -0.75236977   -1.81918593    2.40609069
     atom   45 type  4   force =     2.44293434    0.80592370    1.48451751
     atom   46 type  3   force =    -3.99838977    4.04060588    0.53063589
     atom   47 type  4   force =    -2.43704976    0.35097792   -1.39424709
     atom   48 type  4   force =     0.88570098    2.75786585   -0.63428460
     atom   49 type  4   force =    -1.43765121    0.68542572    2.67126071
     atom   50 type  1   force =     0.64739159   -2.80020101   10.74517412
     atom   51 type  1   force =     0.07705627   -2.32601871    7.24587574
     atom   52 type  1   force =     6.06224707   -5.74729179    3.90515549
     atom   53 type  2   force =    -4.25741493    3.40490183   -6.42309366
     atom   54 type  3   force =     1.94678453    2.73230973   -4.56749785
     atom   55 type  4   force =     1.57273726    2.24519728   -2.32736168
     atom   56 type  3   force =    -0.04984261    0.49356872   -4.98634567
     atom   57 type  4   force =    -0.18033760    0.40775625   -2.86341495
     atom   58 type  3   force =    -2.02729444   -1.76339071   -4.38047196
     atom   59 type  4   force =    -1.94406232   -1.85460465   -1.97754931
     atom   60 type  3   force =     0.24731178    0.60705859   -1.52330499
     atom   61 type  3   force =     0.68591091    0.10367370    3.02967658
     atom   62 type  4   force =     0.51933021   -0.28672237    3.09581281
     atom   63 type  3   force =     0.92025584    1.28897676   -0.55220659
     atom   64 type  3   force =    -1.05185945   -1.01529258    1.17038569
     atom   65 type  4   force =     0.08675533   -0.78601006    3.02389778
     atom   66 type  3   force =    -0.68313372    1.08876125   -3.92684023
     atom   67 type  4   force =    -0.53109965    0.79962465   -3.64329272
     atom   68 type  3   force =    -1.10371097    0.57059262   -4.26897119
     atom   69 type  3   force =    -0.84915631   -0.97580254   -0.98895126
     atom   70 type  3   force =     1.07426070   -0.19101901    3.30471714
     atom   71 type  4   force =     0.52344056   -0.47836887    3.00527395
     atom   72 type  3   force =     2.12756410    1.43823275    2.73297648
     atom   73 type  4   force =     1.77957278    1.55993940    2.10511077
     atom   74 type  3   force =    -0.16166374    0.32499103   -1.72415895
     atom   75 type  3   force =    -1.69739870    0.27063170   -6.06915268
     atom   76 type  4   force =    -0.73624503    0.58509827   -3.46128473
     atom   77 type  3   force =    -2.63901265   -1.69255512   -5.19670090
     atom   78 type  4   force =    -2.03378308   -1.52246128   -2.75503347
     atom   79 type  3   force =     2.81526061   -0.36237864    0.78865350
     atom   80 type  4   force =     1.39567370   -1.83266819    1.90587945
     atom   81 type  3   force =    -1.11253925   -1.40352466   -0.68214841
     atom   82 type  3   force =     1.31943488   -3.00904127    1.80673828
     atom   83 type  4   force =     1.24502975   -2.08206903    1.89224700
     atom   84 type  3   force =    -0.04552851   -0.39651673   -1.03463645
     atom   85 type  3   force =     1.25503812    3.41670009   -2.74170258
     atom   86 type  4   force =     1.58116083    2.50731344   -1.08002342
     atom   87 type  3   force =    -1.89622428    2.66543819   -4.15250465
     atom   88 type  4   force =    -1.24308289    1.97270798   -2.44657348
     atom   89 type  3   force =    -3.95911982    0.17305638   -3.50170282
     atom   90 type  4   force =    -2.93223837   -0.13756396   -1.84103318
     atom   91 type  3   force =    -3.55720892   -3.57063186   -2.14363212
     atom   92 type  4   force =    -1.35155187   -1.87531707    1.52873273
     atom   93 type  4   force =     0.75236975   -1.81918595   -2.40609071
     atom   94 type  4   force =    -2.44293435    0.80592370   -1.48451750
     atom   95 type  3   force =     3.99838981    4.04060589   -0.53063591
     atom   96 type  4   force =     2.43704976    0.35097792    1.39424709
     atom   97 type  4   force =    -0.88570098    2.75786585    0.63428461
     atom   98 type  4   force =     1.43765119    0.68542571   -2.67126065
     atom   99 type  1   force =     0.64739162    2.80020106   10.74517427
     atom  100 type  1   force =     0.07705630    2.32601863    7.24587570
     atom  101 type  1   force =     6.06224696    5.74729179    3.90515546
     atom  102 type  2   force =    -4.25741495   -3.40490178   -6.42309368
     atom  103 type  3   force =     1.94678450   -2.73230965   -4.56749790
     atom  104 type  4   force =     1.57273726   -2.24519728   -2.32736168
     atom  105 type  3   force =    -0.04984258   -0.49356879   -4.98634558
     atom  106 type  4   force =    -0.18033759   -0.40775626   -2.86341503
     atom  107 type  3   force =    -2.02729441    1.76339072   -4.38047196
     atom  108 type  4   force =    -1.94406229    1.85460463   -1.97754932
     atom  109 type  3   force =     0.24731185   -0.60705857   -1.52330502
     atom  110 type  3   force =     0.68591091   -0.10367378    3.02967658
     atom  111 type  4   force =     0.51933023    0.28672238    3.09581280
     atom  112 type  3   force =     0.92025585   -1.28897668   -0.55220663
     atom  113 type  3   force =    -1.05185946    1.01529249    1.17038570
     atom  114 type  4   force =     0.08675535    0.78601006    3.02389777
     atom  115 type  3   force =    -0.68313374   -1.08876122   -3.92684030
     atom  116 type  4   force =    -0.53109963   -0.79962463   -3.64329267
     atom  117 type  3   force =    -1.10371100   -0.57059267   -4.26897137
     atom  118 type  3   force =    -0.84915632    0.97580250   -0.98895135
     atom  119 type  3   force =     1.07426070    0.19101902    3.30471711
     atom  120 type  4   force =     0.52344056    0.47836888    3.00527394
     atom  121 type  3   force =     2.12756410   -1.43823273    2.73297642
     atom  122 type  4   force =     1.77957279   -1.55993944    2.10511079
     atom  123 type  3   force =    -0.16166372   -0.32499107   -1.72415894
     atom  124 type  3   force =    -1.69739868   -0.27063173   -6.06915267
     atom  125 type  4   force =    -0.73624503   -0.58509827   -3.46128474
     atom  126 type  3   force =    -2.63901264    1.69255515   -5.19670084
     atom  127 type  4   force =    -2.03378311    1.52246131   -2.75503348
     atom  128 type  3   force =     2.81526061    0.36237870    0.78865348
     atom  129 type  4   force =     1.39567367    1.83266816    1.90587943
     atom  130 type  3   force =    -1.11253926    1.40352459   -0.68214841
     atom  131 type  3   force =     1.31943488    3.00904124    1.80673829
     atom  132 type  4   force =     1.24502975    2.08206903    1.89224699
     atom  133 type  3   force =    -0.04552846    0.39651675   -1.03463650
     atom  134 type  3   force =     1.25503815   -3.41670006   -2.74170262
     atom  135 type  4   force =     1.58116085   -2.50731346   -1.08002340
     atom  136 type  3   force =    -1.89622431   -2.66543821   -4.15250463
     atom  137 type  4   force =    -1.24308290   -1.97270798   -2.44657349
     atom  138 type  3   force =    -3.95911978   -0.17305631   -3.50170285
     atom  139 type  4   force =    -2.93223840    0.13756397   -1.84103318
     atom  140 type  3   force =    -3.55720897    3.57063196   -2.14363216
     atom  141 type  4   force =    -1.35155187    1.87531708    1.52873273
     atom  142 type  4   force =     0.75236976    1.81918595   -2.40609072
     atom  143 type  4   force =    -2.44293436   -0.80592370   -1.48451751
     atom  144 type  3   force =     3.99838975   -4.04060589   -0.53063593
     atom  145 type  4   force =     2.43704979   -0.35097792    1.39424709
     atom  146 type  4   force =    -0.88570098   -2.75786585    0.63428460
     atom  147 type  4   force =     1.43765118   -0.68542571   -2.67126066
     atom  148 type  1   force =    -0.64739156    2.80020102  -10.74517406
     atom  149 type  1   force =    -0.07705635    2.32601856   -7.24587573
     atom  150 type  1   force =    -6.06224697    5.74729179   -3.90515548
     atom  151 type  2   force =     4.25741496   -3.40490179    6.42309367
     atom  152 type  3   force =    -1.94678455   -2.73230966    4.56749781
     atom  153 type  4   force =    -1.57273726   -2.24519728    2.32736167
     atom  154 type  3   force =     0.04984263   -0.49356878    4.98634562
     atom  155 type  4   force =     0.18033757   -0.40775625    2.86341496
[...]
     atom  116 type  4   force =    -0.00000009    0.00000003    0.00000008
     atom  117 type  3   force =    -0.00000116    0.00000004   -0.00000064
     atom  118 type  3   force =    -0.00000137    0.00000001   -0.00000059
     atom  119 type  3   force =    -0.00000158    0.00000004   -0.00000064
     atom  120 type  4   force =    -0.00000037   -0.00000001   -0.00000015
     atom  121 type  3   force =    -0.00000160    0.00000006   -0.00000054
     atom  122 type  4   force =    -0.00000037   -0.00000000   -0.00000012
     atom  123 type  3   force =    -0.00000162    0.00000010   -0.00000037
     atom  124 type  3   force =    -0.00000143    0.00000011   -0.00000003
     atom  125 type  4   force =    -0.00000031    0.00000002    0.00000007
     atom  126 type  3   force =    -0.00000118    0.00000003   -0.00000010
     atom  127 type  4   force =    -0.00000017   -0.00000001    0.00000007
     atom  128 type  3   force =    -0.00000124   -0.00000002   -0.00000022
     atom  129 type  4   force =    -0.00000028   -0.00000001   -0.00000010
     atom  130 type  3   force =    -0.00000108   -0.00000002    0.00000000
     atom  131 type  3   force =    -0.00000035    0.00000005    0.00000005
     atom  132 type  4   force =    -0.00000000    0.00000000   -0.00000002
     atom  133 type  3   force =     0.00000013   -0.00000003    0.00000035
     atom  134 type  3   force =    -0.00000045   -0.00000005    0.00000055
     atom  135 type  4   force =    -0.00000005    0.00000001    0.00000022
     atom  136 type  3   force =    -0.00000118   -0.00000000    0.00000056
     atom  137 type  4   force =    -0.00000035    0.00000001    0.00000019
     atom  138 type  3   force =    -0.00000137   -0.00000007    0.00000027
     atom  139 type  4   force =    -0.00000039   -0.00000001    0.00000008
     atom  140 type  3   force =     0.00000272   -0.00000117    0.00000089
     atom  141 type  4   force =     0.00000050   -0.00000014   -0.00000004
     atom  142 type  4   force =     0.00000046   -0.00000013    0.00000026
     atom  143 type  4   force =     0.00000052   -0.00000007    0.00000020
     atom  144 type  3   force =     0.00000105    0.00000016    0.00000048
     atom  145 type  4   force =     0.00000035    0.00000003    0.00000006
     atom  146 type  4   force =     0.00000022    0.00000001    0.00000007
     atom  147 type  4   force =     0.00000026    0.00000002    0.00000024
     atom  148 type  1   force =     0.00000240    0.00000028   -0.00000147
     atom  149 type  1   force =    -0.00000246    0.00000046    0.00000094
     atom  150 type  1   force =    -0.00000219    0.00000014    0.00000090
     atom  151 type  2   force =     0.00000248   -0.00000001    0.00000150
     atom  152 type  3   force =    -0.00000057    0.00000000    0.00000035
     atom  153 type  4   force =    -0.00000007    0.00000001    0.00000008
     atom  154 type  3   force =    -0.00000123   -0.00000009    0.00000037
     atom  155 type  4   force =    -0.00000033   -0.00000001    0.00000002
     atom  156 type  3   force =    -0.00000158    0.00000004    0.00000009
     atom  157 type  4   force =    -0.00000043    0.00000001    0.00000006
     atom  158 type  3   force =    -0.00000077    0.00000126   -0.00000080
     atom  159 type  3   force =    -0.00000063    0.00000025    0.00000054
     atom  160 type  4   force =    -0.00000013    0.00000004    0.00000025
     atom  161 type  3   force =    -0.00000044   -0.00000013    0.00000026
     atom  162 type  3   force =     0.00000053    0.00000009    0.00000049
     atom  163 type  4   force =     0.00000013   -0.00000004    0.00000024
     atom  164 type  3   force =     0.00000137    0.00000052    0.00000056
     atom  165 type  4   force =     0.00000023    0.00000005    0.00000016
     atom  166 type  3   force =     0.00000151    0.00000039   -0.00000120
     atom  167 type  3   force =     0.00000171   -0.00000022    0.00000068
     atom  168 type  3   force =     0.00000208    0.00000007    0.00000024
     atom  169 type  4   force =     0.00000052    0.00000003   -0.00000002
     atom  170 type  3   force =     0.00000209    0.00000008    0.00000040
     atom  171 type  4   force =     0.00000047   -0.00000002    0.00000001
     atom  172 type  3   force =     0.00000215    0.00000016    0.00000098
     atom  173 type  3   force =     0.00000201    0.00000017    0.00000104
     atom  174 type  4   force =     0.00000044    0.00000002    0.00000027
     atom  175 type  3   force =     0.00000172   -0.00000002    0.00000100
     atom  176 type  4   force =     0.00000031   -0.00000002    0.00000020
     atom  177 type  3   force =     0.00000140    0.00000006    0.00000099
     atom  178 type  4   force =     0.00000027    0.00000005    0.00000015
     atom  179 type  3   force =     0.00000109    0.00000007    0.00000123
     atom  180 type  3   force =     0.00000011    0.00000018    0.00000089
     atom  181 type  4   force =    -0.00000006    0.00000010    0.00000010
     atom  182 type  3   force =    -0.00000042   -0.00000002    0.00000104
     atom  183 type  3   force =    -0.00000004   -0.00000020    0.00000140
     atom  184 type  4   force =    -0.00000012   -0.00000008    0.00000035
     atom  185 type  3   force =     0.00000091   -0.00000012    0.00000153
     atom  186 type  4   force =     0.00000027   -0.00000005    0.00000039
     atom  187 type  3   force =     0.00000143   -0.00000001    0.00000150
     atom  188 type  4   force =     0.00000046    0.00000000    0.00000038
     atom  189 type  3   force =    -0.00000353   -0.00000143   -0.00000041
     atom  190 type  4   force =    -0.00000065   -0.00000015    0.00000007
     atom  191 type  4   force =    -0.00000059   -0.00000014    0.00000001
     atom  192 type  4   force =    -0.00000067   -0.00000009    0.00000004
     atom  193 type  3   force =    -0.00000176   -0.00000010    0.00000073
     atom  194 type  4   force =    -0.00000057    0.00000001    0.00000010
     atom  195 type  4   force =    -0.00000030   -0.00000009    0.00000014
     atom  196 type  4   force =    -0.00000045   -0.00000003    0.00000028

     Total force =     3.490911     Total SCF correction =     0.000017

     BFGS Geometry Optimization
     Energy error            =      0.0E+00 Ry
     Gradient error          =      3.3E-01 Ry/Bohr

     number of scf cycles    =   1
     number of bfgs steps    =   0

     energy             new  =   -1757.8706998658 Ry

     new trust radius        =       0.3497508914 bohr
     new conv_thr            =            1.0E-10 Ry


ATOMIC_POSITIONS (angstrom)
O            -4.5755982349        3.8365074244        9.3737919109
O             0.0435033782        4.3132195500       10.8474460470
O             3.8066477064        5.3112187473       12.0051334451
N            -7.2826735428        2.7321778915       12.8123019939
C            -1.7529798470        1.4612320828       12.9837230297
H            -2.3361754048        2.3226641461       13.6288617817
C            -0.9716987464        0.6977580801       13.5404244903
H            -0.7742977657        0.8299546088       14.7499747330
C            -0.3781670205        5.4425186662       12.9359834185
H             0.4035755649        4.6964585090       13.5068028829
C            -0.5161559579        5.2138524472       11.6452661709
C            -1.3809854260        0.4521105110       11.1532822725
H            -1.5752587949        0.3107993432        9.9501889828
C            -2.0554414479        1.4357419167       11.6978841893
C            -2.8750108925        2.2702433177       11.1076058555
H            -3.0888847827        2.0311999291        9.9197239482
C            -3.5818022248        3.3256224741       11.3364849912
H            -3.4007283149        3.6127642624       12.4979720404
C            -4.4211222804        4.1182881652       10.6668557723
C            -5.1496690263        5.2027440694       11.2028788012
C            -5.9757248097        0.3547327709       10.5390327236
H            -6.0672911890        0.0663134502        9.3434833895
C            -6.6296872971        1.2759537427       10.9792808182
H            -7.3563578284        1.9384670718       10.2325754470
C            -6.6467550354        1.6988775204       12.2367652306
C            -5.7936278283        0.9268523161       12.8979355025
H            -5.6794984666        1.2439251160       14.0780873004
C            -5.1518089306        5.6266539973       12.4473644614
H            -4.4169252413        4.9887824728       13.1991420518
C            -8.4668970543        3.0454019633       12.4858118117
H            -8.9565718383        2.2476218131       11.6498173628
C            -9.2804094794        4.0264485986       12.8415012530
C             5.8186475508        4.2985104857       12.3823125995
H             5.4128444241        3.4836295268       11.5517543703
C             4.9883076780        5.2620256923       12.6323114933
C             5.5034032768        0.4261221907       13.5406276543
H             4.8058394751        1.3704194092       13.8782747215
C            -9.6734030606        0.2530883963       14.0447239007
H            -9.2804014933        1.0539434410       14.8987924929
C            -8.9562810601        4.9569536278       13.7289181686
H            -7.8453427538        4.8168947138       14.2251723413
C             0.8873587111        3.4847607827       11.4323644339
H             1.3358809538        2.7462664676       10.6933186436
H             0.4367494693        2.8283541031       12.2403810380
H             1.7828151658        3.9680401998       11.9192354120
C             3.1449600664        0.8116062423       12.1637360991
H             2.2093311423        0.8516849454       11.5241438722
H             3.7208396394        1.7457863031       11.8716049676
H             2.7802783668        1.0127726828       13.2111813181
O            13.2329556549        1.0213074244        0.4066156191
O            -6.6654311082        1.4980195500       18.4937765530
O           -10.4285754464        2.4960187473       17.3360891549
N             0.6607458028        5.5473778915       16.5289206061
C            -4.8689478930        4.2764320828       16.3574995703
H            -4.2857523352        5.1378641461       15.7123608183
C            -5.6502289836        3.5129580801       15.8007981097
H            -5.8476299743        3.6451546088       14.5912478670
C            -6.2437607195        2.6273186662       16.4052391715
H            -7.0255033049        1.8812585090       15.8344197171
C            -6.1057717821        2.3986524472       17.6959564291
C            -5.2409423040        3.2673105110       18.1879403175
H            -5.0466689451        3.1259993432       19.3910336172
C            -4.5664862921        4.2509419167       17.6433384107
C            -3.7469168375        5.0854433177       18.2336167445
H            -3.5330429473        4.8463999291       19.4214986518
C            -3.0401255152        0.5104224741       18.0047376088
H            -3.2211994251        0.7975642624       16.8432505596
C            -2.2008054596        1.3030881652       18.6743668277
C            -1.4722587137        2.3875440694       18.1383437988
C            -0.6462029303        3.1699327709       18.8021898764
H            14.7246486090        2.8815134502        0.4369241405
C             0.0077595571        4.0911537427       18.3619417818
H             0.7344300984        4.7536670718       19.1086471530
C             0.0248272954        4.5140775204       17.1044573694
C            -0.8282999117        3.7420523161       16.4432870975
H            -0.9424292634        4.0591251160       15.2631352896
C            -1.4701188094        2.8114539973       16.8938581386
H            -2.2050024987        2.1735824728       16.1420805482
C             1.8449693143        0.2302019633       16.8554107883
H             2.3346440983        5.0628218131       17.6914052272
C             2.6584817394        1.2112485986       16.4997213470
C           -12.4405752908        1.4833104857       16.9589100005
H           -12.0347721641        0.6684295268       17.7894682197
C           -11.6102354180        2.4468256923       16.7089111067
C           -12.1253310168        3.2413221907       15.8005949457
H           -11.4277672051        4.1856194092       15.4629478785
C             3.0514753206        3.0682883963       15.2964986893
H             2.6584737533        3.8691434410       14.4424301071
C             2.3343533201        2.1417536278       15.6123044314
H             1.2234150138        2.0016947138       15.1160502487
C            -7.5092864411        0.6695607827       17.9088581661
H            -7.9578086938       -0.0689335324       18.6479039564
H            -7.0586772093        0.0131541031       17.1008415620
H            -8.4047428958        1.1528401998       17.4219871880
C            -9.7668878064        3.6268062423       17.1774865009
H            -8.8312588823        3.6668849454       17.8170787278
H           -10.3427673794        4.5609863031       17.4696176324
H            -9.4022061068        3.8279726828       16.1300412719
O             5.5933130749        1.7938925756       10.1870231491
O             0.9742114618        1.3171804500        8.7133690130
O            -2.7889328664        0.3191812527        7.5556816249
N             8.3003883828        2.8982221085        6.7485130661
C             2.7706946870        4.1691679172        6.5770920403
H             3.3538902448        3.3077358539        5.9319532883
C             1.9894135864        4.9326419199        6.0203905697
H             1.7920126057        4.8004453912        4.8108403370
C             1.3958818605        0.1878813338        6.6248316415
H             0.6141392751        0.9339414910        6.0540121771
C             1.5338707979        0.4165475528        7.9155488991
C             2.3987002660        5.1782894890        8.4075327875
H             2.5929736349        5.3196006568        9.6106260872
C             3.0731562879        4.1946580833        7.8629308807
C             3.8927257325        3.3601566823        8.4532092145
H             4.1065996327        3.5992000709        9.6410911218
C             4.5995170648        2.3047775259        8.2243300788
H             4.4184431549        2.0176357376        7.0628430196
C             5.4388371204        1.5121118348        8.8939592977
C             6.1673838663        0.4276559306        8.3579362688
C             6.9934396497        5.2756672291        9.0217823464
H             7.0850060290        5.5640865498       10.2173316805
C             7.6474021371        4.3544462573        8.5815342518
H             8.3740726684        3.6919329282        9.3282396230
C             7.6644698754        3.9315224796        7.3240498394
C             6.8113426683        4.7035476839        6.6628795675
H             6.6972133166        4.3864748840        5.4827277596
C             6.1695237706        0.0037460027        7.1134505986
H             5.4346400813        0.6416175272        6.3616730182
C             9.4846118943        2.5849980367        7.0750032483
H             9.9742866783        3.3827781869        7.9109976972
C            10.2981243194        1.6039514014        6.7193138170
C            -4.8009327108        1.3318895143        7.1785024705
H            -4.3951295841        2.1467704732        8.0090606897
C            -3.9705928380        0.3683743077        6.9285035667
C            -4.4856884368        5.2042778093        6.0201874057
H            -3.7881246251        4.2599805908        5.6825403485
C            10.6911179006        5.3773116037        5.5160911593
H            10.2981163333        4.5764565590        4.6620225771
C             9.9739959001        0.6734463722        5.8318968914
H             8.8630575938        0.8135052862        5.3356427187
C             0.1303561389        2.1456392173        8.1284506361
H            -0.3181661138        2.8841335324        8.8674964264
H             0.5809653707        2.8020458969        7.3204340320
H            -0.7651003158        1.6623598002        7.6415796580
C            -2.1272452264        4.8187937577        7.3970789709
H            -1.1916163023        4.7787150546        8.0366711878
H            -2.7031247994        3.8846136969        7.6892101024
H            -1.7625635268        4.6176273172        6.3496337419
O           -12.2152408149        4.6090925756       19.1541994409
O             7.6831459582        4.1323804500        1.0670385170
O            11.4462902864        3.1343812527        2.2247259051
N             0.3569690372        0.0830221085        3.0318944639
C             5.8866627330        1.3539679172        3.2033154997
H             5.3034671752        0.4925358539        3.8484542517
C             6.6679438336        2.1174419199        3.7600169603
H             6.8653448143        1.9852453912        4.9695672030
C             7.2614755595        3.0030813338        3.1555758885
H             8.0432181449        3.7491414910        3.7263953529
C             7.1234866221        3.2317475528        1.8648586409
C             6.2586571540        2.3630894890        1.3728747425
H             6.0643837851        2.5044006568        0.1697814428
C             5.5842011321        1.3794580833        1.9174766493
C             4.7646316875        0.5449566823        1.3271983255
H             4.5507577873        0.7840000709        0.1393164182
C             4.0578403552        5.1199775259        1.5560774612
H             4.2389142651        4.8328357376        2.7175645104
C             3.2185202996        4.3273118348        0.8864482323
C             2.4899735537        3.2428559306        1.4224712612
C             1.6639177703        2.4604672291        0.7586251836
H           -13.7069337690        2.7488865498       19.1238909195
C             1.0099552829        1.5392462573        1.1988732882
H             0.2832847516        0.8767329282        0.4521679070
C             0.9928875446        1.1163224796        2.4563576906
C             1.8460147517        1.8883476839        3.1175279725
H             1.9601441134        1.5712748840        4.2976797704
C             2.4878336494        2.8189460027        2.6669569314
H             3.2227173387        3.4568175272        3.4187345118
C            -0.8272544743        5.4001980367        2.7054042817
H            -1.3169292583        0.5675781869        1.8694098328
C            -1.6407668994        4.4191514014        3.0610937130
C            13.4582901308        4.1470895143        2.6019050695
H            13.0524870041        4.9619704732        1.7713468403
C            12.6279502580        3.1835743077        2.8519039633
C            13.1430458568        2.3890778093        3.7602201243
H            12.4454820551        1.4447805908        4.0978671915
C            -2.0337604806        2.5621116037        4.2643163707
H            -1.6407589133        1.7612565590        5.1183849529
C            -1.3166384801        3.4886463722        3.9485106386
H            -0.2057001738        3.6287052862        4.4447648113
C             8.5270012811        4.9608392173        1.6519568939
H             8.9755235338        5.6993335324        0.9129111136
H             8.0763920493        5.6172458969        2.4599734980
H             9.4224577358        4.4775598002        2.1388278820
C            10.7846026464        2.0035937577        2.3833285591
H             9.8489737223        1.9635150546        1.7437363422
H            11.3604822194        1.0694136969        2.0911974376
H            10.4199209468        1.8024273172        3.4307737881



     Writing config-only to output data dir ./outdir/4amp15.save/
     NEW-OLD atomic charge density approx. for the potential

     Check: negative core charge=   -0.000001

     total cpu time spent up to now is       52.1 secs
