 DBCSR| CPU Multiplication driver                                           XSMM (U)
 DBCSR| Multrec recursion limit                                              512 (U)
 DBCSR| Multiplication stack size                                           1000 (D)
 DBCSR| Maximum elements for images                                    UNLIMITED (U)
 DBCSR| Multiplicative factor virtual images                                   1 (U)
 DBCSR| Use multiplication densification                                       T (D)
 DBCSR| Multiplication size stacks                                             3 (U)
 DBCSR| Use memory pool for CPU allocation                                     F (U)
 DBCSR| Number of 3D layers                                               SINGLE (U)
 DBCSR| Use MPI memory allocation                                              F (U)
 DBCSR| Use RMA algorithm                                                      F (U)
 DBCSR| Use Communication thread                                               T (U)
 DBCSR| Communication thread load                                             83 (D)
 DBCSR| MPI: My process id                                                     0
 DBCSR| MPI: Number of processes                                              90
 DBCSR| OMP: Current number of threads                                         2
 DBCSR| OMP: Max number of threads                                             2
 DBCSR| Split modifier for TAS multiplication algorithm                  1.0E+00 (U)


  **** **** ******  **  PROGRAM STARTED AT               2024-03-17 08:50:35.914
 ***** ** ***  *** **   PROGRAM STARTED ON                          777554adc726
 **    ****   ******    PROGRAM STARTED BY                             <unknown>
 ***** **    ** ** **   PROGRAM PROCESS ID                                   538
  **** **  *******  **  PROGRAM STARTED IN                                  /mnt

 CP2K| version string:                                       CP2K version 2023.2
 CP2K| source code revision number:                                  git:65cca6c
 CP2K| cp2kflags: omp libint fftw3 libxc pexsi elpa parallel scalapack cosma qui
 CP2K|            p xsmm plumed2 spglib sirius libvori libbqb libtorch libvdwxc
 CP2K| is freely available from                            https://www.cp2k.org/
 CP2K| Program compiled at                          Wed Oct 18 11:40:41 UTC 2023
 CP2K| Program compiled on                                          633bb7bf566f
 CP2K| Program compiled for                                                local
 CP2K| Data directory path                                        /opt/cp2k/data
 CP2K| Input file name                                      4amp33iso_solvent.in

 GLOBAL| Force Environment number                                              1
 GLOBAL| Basis set file name                                    BASIS_MOLOPT_UZH
 GLOBAL| Potential file name                                       POTENTIAL_UZH
 GLOBAL| MM Potential file name                                     MM_POTENTIAL
 GLOBAL| Coordinate file name                                      __STD_INPUT__
 GLOBAL| Method name                                                        CP2K
 GLOBAL| Project name                                           4amp33isosolvent
 GLOBAL| Run type                                                         ENERGY
 GLOBAL| FFT library                                                       FFTW3
 GLOBAL| Diagonalization library                                       ScaLAPACK
 GLOBAL| DGEMM library                                                      BLAS
 GLOBAL| Orthonormality check for eigenvectors                          DISABLED
 GLOBAL| Matrix multiplication library                                     COSMA
 GLOBAL| All-to-all communication in single precision                          F
 GLOBAL| FFTs using library dependent lengths                                  F
 GLOBAL| Grid backend                                                       AUTO
 GLOBAL| Global print level                                               MEDIUM
 GLOBAL| MPI I/O enabled                                                       T
 GLOBAL| Total number of message passing processes                            90
 GLOBAL| Number of threads for this process                                    2
 GLOBAL| This output is from process                                           0
 GLOBAL| Stack size for threads created by OpenMP (OMP_STACKSIZE)            16M
 GLOBAL| CPU model name                                            AMD EPYC 9B14
 GLOBAL| CPUID                                                              1003
 GLOBAL| Compiled for CPUID                                                    0

 *** HINT in environment.F:904 :: The compiler target flags (generic) used ***
 *** to build this binary cannot exploit all extensions of this CPU model  ***
 *** (x86_avx512). Consider compiler target flags as part of FCFLAGS and   ***
 *** CFLAGS (ARCH file).                                                   ***


 MEMORY| system memory details [Kb]
 MEMORY|                        rank 0           min           max       average
 MEMORY| MemTotal            365023368     365023368     365023368     365023368
 MEMORY| MemFree             347205884     347205388     347205884     347205393
 MEMORY| Buffers                 30832         30832         30832         30832
 MEMORY| Cached                4846612       4846608       4846612       4846608
 MEMORY| Slab                   640288        640224        640288        640224
 MEMORY| SReclaimable           217796        217796        217796        217796
 MEMORY| MemLikelyFree       352301124     352300624     352301124     352300629


 *** Fundamental physical constants (SI units) ***

 *** Literature: B. J. Mohr and B. N. Taylor,
 ***             CODATA recommended values of the fundamental physical
 ***             constants: 2006, Web Version 5.1
 ***             http://physics.nist.gov/constants

 Speed of light in vacuum [m/s]                             2.99792458000000E+08
 Magnetic constant or permeability of vacuum [N/A**2]       1.25663706143592E-06
 Electric constant or permittivity of vacuum [F/m]          8.85418781762039E-12
 Planck constant (h) [J*s]                                  6.62606896000000E-34
 Planck constant (h-bar) [J*s]                              1.05457162825177E-34
 Elementary charge [C]                                      1.60217648700000E-19
 Electron mass [kg]                                         9.10938215000000E-31
 Electron g factor [ ]                                     -2.00231930436220E+00
 Proton mass [kg]                                           1.67262163700000E-27
 Fine-structure constant                                    7.29735253760000E-03
 Rydberg constant [1/m]                                     1.09737315685270E+07
 Avogadro constant [1/mol]                                  6.02214179000000E+23
 Boltzmann constant [J/K]                                   1.38065040000000E-23
 Atomic mass unit [kg]                                      1.66053878200000E-27
 Bohr radius [m]                                            5.29177208590000E-11

 *** Conversion factors ***

 [u] -> [a.u.]                                              1.82288848426455E+03
 [Angstrom] -> [Bohr] = [a.u.]                              1.88972613288564E+00
 [a.u.] = [Bohr] -> [Angstrom]                              5.29177208590000E-01
 [a.u.] -> [s]                                              2.41888432650478E-17
 [a.u.] -> [fs]                                             2.41888432650478E-02
 [a.u.] -> [J]                                              4.35974393937059E-18
 [a.u.] -> [N]                                              8.23872205491840E-08
 [a.u.] -> [K]                                              3.15774647902944E+05
 [a.u.] -> [kJ/mol]                                         2.62549961709828E+03
 [a.u.] -> [kcal/mol]                                       6.27509468713739E+02
 [a.u.] -> [Pa]                                             2.94210107994716E+13
 [a.u.] -> [bar]                                            2.94210107994716E+08
 [a.u.] -> [atm]                                            2.90362800883016E+08
 [a.u.] -> [eV]                                             2.72113838565563E+01
 [a.u.] -> [Hz]                                             6.57968392072181E+15
 [a.u.] -> [1/cm] (wave numbers)                            2.19474631370540E+05
 [a.u./Bohr**2] -> [1/cm]                                   5.14048714338585E+03
 

 CELL_TOP| Volume [angstrom^3]:                                     17576.000000
 CELL_TOP| Vector a [angstrom    26.000     0.000     0.000   |a| =    26.000000
 CELL_TOP| Vector b [angstrom     0.000    26.000     0.000   |b| =    26.000000
 CELL_TOP| Vector c [angstrom     0.000     0.000    26.000   |c| =    26.000000
 CELL_TOP| Angle (b,c), alpha [degree]:                                90.000000
 CELL_TOP| Angle (a,c), beta  [degree]:                                90.000000
 CELL_TOP| Angle (a,b), gamma [degree]:                                90.000000
 CELL_TOP| Numerically orthorhombic:                                         YES
 CELL_TOP| Periodicity                                                      NONE

 GENERATE|  Preliminary Number of Bonds generated:                             0
 GENERATE|  Achieved consistency in connectivity generation.

 CELL| Volume [angstrom^3]:                                         17576.000000
 CELL| Vector a [angstrom]:      26.000     0.000     0.000   |a| =    26.000000
 CELL| Vector b [angstrom]:       0.000    26.000     0.000   |b| =    26.000000
 CELL| Vector c [angstrom]:       0.000     0.000    26.000   |c| =    26.000000
 CELL| Angle (b,c), alpha [degree]:                                    90.000000
 CELL| Angle (a,c), beta  [degree]:                                    90.000000
 CELL| Angle (a,b), gamma [degree]:                                    90.000000
 CELL| Numerically orthorhombic:                                             YES
 CELL| Periodicity                                                          NONE

 CELL_REF| Volume [angstrom^3]:                                     17576.000000
 CELL_REF| Vector a [angstrom    26.000     0.000     0.000   |a| =    26.000000
 CELL_REF| Vector b [angstrom     0.000    26.000     0.000   |b| =    26.000000
 CELL_REF| Vector c [angstrom     0.000     0.000    26.000   |c| =    26.000000
 CELL_REF| Angle (b,c), alpha [degree]:                                90.000000
 CELL_REF| Angle (a,c), beta  [degree]:                                90.000000
 CELL_REF| Angle (a,b), gamma [degree]:                                90.000000
 CELL_REF| Numerically orthorhombic:                                         YES
 CELL_REF| Periodicity                                                      NONE

 *******************************************************************************
 *******************************************************************************
 **                                                                           **
 **     #####                         ##              ##                      **
 **    ##   ##            ##          ##              ##                      **
 **   ##     ##                       ##            ######                    **
 **   ##     ##  ##   ##  ##   #####  ##  ##   ####   ##    #####    #####    **
 **   ##     ##  ##   ##  ##  ##      ## ##   ##      ##   ##   ##  ##   ##   **
 **   ##  ## ##  ##   ##  ##  ##      ####     ###    ##   ######   ######    **
 **    ##  ###   ##   ##  ##  ##      ## ##      ##   ##   ##       ##        **
 **     #######   #####   ##   #####  ##  ##  ####    ##    #####   ##        **
 **           ##                                                    ##        **
 **                                                                           **
 **                                                ... make the atoms dance   **
 **                                                                           **
 **            Copyright (C) by CP2K developers group (2000-2023)             **
 **                      J. Chem. Phys. 152, 194103 (2020)                    **
 **                                                                           **
 *******************************************************************************

 DFT| Spin restricted Kohn-Sham (RKS) calculation                            RKS
 DFT| Multiplicity                                                             1
 DFT| Number of spin states                                                    1
 DFT| Charge                                                                   0
 DFT| Self-interaction correction (SIC)                                       NO
 DFT| Cutoffs: density                                              1.000000E-10
 DFT|          gradient                                             1.000000E-10
 DFT|          tau                                                  1.000000E-10
 DFT|          cutoff_smoothing_range                               0.000000E+00
 DFT| XC density smoothing                                                  NONE
 DFT| XC derivatives                                                          PW

 FUNCTIONAL| PBE:
 FUNCTIONAL| J.P.Perdew, K.Burke, M.Ernzerhof, Phys. Rev. Letter, vol. 77, n 18,
 FUNCTIONAL|  pp. 3865-3868, (1996)sx=0.750sc=1.000{spin unpolarized}           

 SCCS| Self-consistent continuum solvation model
 SCCS| Relative permittivity of the solvent (medium)                3.671000E+01
 SCCS| Absolute permittivity [a.u.]                                 2.921289E+00
 SCCS| Dielectric function proposed by Fattebert and Gygi
 SCCS|  beta                                                        1.700000E+00
 SCCS|  rho_zero                                                    6.000000E-04
 SCCS| Numerical derivative calculation      5-point stencil central differences
 SCCS| Repulsion parameter alpha [mN/m] = [dyn/cm]                  9.880000E+00
 SCCS| Dispersion parameter beta [GPa]                             -5.000000E-01
 SCCS| Surface tension gamma [mN/m] = [dyn/cm]                      3.642000E+01
 SCCS| Mixing parameter applied during the iteration cycle          6.000000E-01
 SCCS| Tolerance for the convergence of the SCCS iteration c        1.000000E-07
 SCCS| Maximum number of iteration steps                                     100
 SCCS| SCF convergence threshold for starting the SCCS itera        1.000000E-02
 SCCS| Numerical increment for the cavity surface calculatio        2.000000E-05


 QS| Method:                                                                 GPW
 QS| Density plane wave grid type                        NON-SPHERICAL FULLSPACE
 QS| Number of grid levels:                                                    6
 QS| Density cutoff [a.u.]:                                                250.0
 QS| Multi grid cutoff [a.u.]: 1) grid level                               250.0
 QS|                           2) grid level                                83.3
 QS|                           3) grid level                                27.8
 QS|                           4) grid level                                 9.3
 QS|                           5) grid level                                 3.1
 QS|                           6) grid level                                 1.0
 QS| Grid level progression factor:                                          3.0
 QS| Relative density cutoff [a.u.]:                                        35.0
 QS| Interaction thresholds: eps_pgf_orb:                                1.0E-35
 QS|                         eps_filter_matrix:                          0.0E+00
 QS|                         eps_core_charge:                            1.0E-12
 QS|                         eps_rho_gspace:                             1.0E-10
 QS|                         eps_rho_rspace:                             1.0E-10
 QS|                         eps_gvg_rspace:                             1.0E-05
 QS|                         eps_ppl:                                    1.0E-02
 QS|                         eps_ppnl:                                   1.0E-07


 ATOMIC KIND INFORMATION

  1. Atomic kind: O                                     Number of atoms:       1

     Orbital Basis Set                                   TZVP-MOLOPT-PBE0-GTH-q6

       Number of orbital shell sets:                                           1
       Number of orbital shells:                                               7
       Number of primitive Cartesian functions:                                5
       Number of Cartesian basis functions:                                   18
       Number of spherical basis functions:                                   17
       Norm type:                                                              2

       Normalised Cartesian orbitals:

                        Set   Shell   Orbital            Exponent    Coefficient

                          1       1    2s               10.340824      -0.389977
                                                         3.648643      -0.175590
                                                         1.255036       0.325195
                                                         0.439367       0.217208
                                                         0.142955       0.036860

                          1       2    3s               10.340824       0.439751
                                                         3.648643       0.252390
                                                         1.255036      -0.403214
                                                         0.439367      -0.041268
                                                         0.142955       0.198772

                          1       3    4s               10.340824      -2.407744
                                                         3.648643      -2.077801
                                                         1.255036       2.124293
                                                         0.439367      -0.912766
                                                         0.142955       0.159606

                          1       4    3px              10.340824      -1.565341
                                                         3.648643      -1.418802
                                                         1.255036      -0.719847
                                                         0.439367      -0.210399
                                                         0.142955      -0.027187
                          1       4    3py              10.340824      -1.565341
                                                         3.648643      -1.418802
                                                         1.255036      -0.719847
                                                         0.439367      -0.210399
                                                         0.142955      -0.027187
                          1       4    3pz              10.340824      -1.565341
                                                         3.648643      -1.418802
                                                         1.255036      -0.719847
                                                         0.439367      -0.210399
                                                         0.142955      -0.027187

                          1       5    4px              10.340824       1.698128
                                                         3.648643       1.264183
                                                         1.255036       0.854862
                                                         0.439367      -0.008113
                                                         0.142955      -0.117568
                          1       5    4py              10.340824       1.698128
                                                         3.648643       1.264183
                                                         1.255036       0.854862
                                                         0.439367      -0.008113
                                                         0.142955      -0.117568
                          1       5    4pz              10.340824       1.698128
                                                         3.648643       1.264183
                                                         1.255036       0.854862
                                                         0.439367      -0.008113
                                                         0.142955      -0.117568

                          1       6    5px              10.340824       2.727797
                                                         3.648643       2.225417
                                                         1.255036       2.058206
                                                         0.439367      -0.758146
                                                         0.142955       0.076848
                          1       6    5py              10.340824       2.727797
                                                         3.648643       2.225417
                                                         1.255036       2.058206
                                                         0.439367      -0.758146
                                                         0.142955       0.076848
                          1       6    5pz              10.340824       2.727797
                                                         3.648643       2.225417
                                                         1.255036       2.058206
                                                         0.439367      -0.758146
                                                         0.142955       0.076848

                          1       7    4dx2             10.340824      -0.011152
                                                         3.648643       0.593882
                                                         1.255036       1.364830
                                                         0.439367       0.210109
                                                         0.142955      -0.000900
                          1       7    4dxy             10.340824      -0.019316
                                                         3.648643       1.028633
                                                         1.255036       2.363955
                                                         0.439367       0.363920
                                                         0.142955      -0.001559
                          1       7    4dxz             10.340824      -0.019316
                                                         3.648643       1.028633
                                                         1.255036       2.363955
                                                         0.439367       0.363920
                                                         0.142955      -0.001559
                          1       7    4dy2             10.340824      -0.011152
                                                         3.648643       0.593882
                                                         1.255036       1.364830
                                                         0.439367       0.210109
                                                         0.142955      -0.000900
                          1       7    4dyz             10.340824      -0.019316
                                                         3.648643       1.028633
                                                         1.255036       2.363955
                                                         0.439367       0.363920
                                                         0.142955      -0.001559
                          1       7    4dz2             10.340824      -0.011152
                                                         3.648643       0.593882
                                                         1.255036       1.364830
                                                         0.439367       0.210109
                                                         0.142955      -0.000900

     Auxiliary Fit Basis Set                                         admm-tzp-q6

       Number of orbital shell sets:                                           7
       Number of orbital shells:                                               7
       Number of primitive Cartesian functions:                                9
       Number of Cartesian basis functions:                                   18
       Number of spherical basis functions:                                   17
       Norm type:                                                              2

       Normalised Cartesian orbitals:

                        Set   Shell   Orbital            Exponent    Coefficient

                          1       1    1s                8.406831      -1.124375
                                                         0.967239       0.772464

                          2       1    1s                0.374656       0.341299

                          3       1    1s                0.159520       0.179896

                          4       1    1px               8.299922      -7.331094
                                                         2.387648       5.036579
                          4       1    1py               8.299922      -7.331094
                                                         2.387648       5.036579
                          4       1    1pz               8.299922      -7.331094
                                                         2.387648       5.036579

                          5       1    1px               0.720639       0.946428
                          5       1    1py               0.720639       0.946428
                          5       1    1pz               0.720639       0.946428

                          6       1    1px               0.198275       0.188592
                          6       1    1py               0.198275       0.188592
                          6       1    1pz               0.198275       0.188592

                          7       1    1dx2              1.185000       2.215218
                          7       1    1dxy              1.185000       3.836871
                          7       1    1dxz              1.185000       3.836871
                          7       1    1dy2              1.185000       2.215218
                          7       1    1dyz              1.185000       3.836871
                          7       1    1dz2              1.185000       2.215218

       Atomic covalent radius [Angstrom]:                                  0.730

       Atomic van der Waals radius [Angstrom]:                             1.520

     GTH Potential information for                                   GTH-PBE0-q6

       Description:                       Goedecker-Teter-Hutter pseudopotential
                                           Goedecker et al., PRB 54, 1703 (1996)
                                          Hartwigsen et al., PRB 58, 3641 (1998)
                                                      Krack, TCA 114, 145 (2005)

       Gaussian exponent of the core charge distribution:               8.214783
       Electronic configuration (s p d ...):                       2   4   0   0

       Parameters of the local part of the GTH pseudopotential:

                          rloc        C1          C2          C3          C4
                        0.246710  -16.655333    2.508548

       Parameters of the non-local part of the GTH pseudopotential:

                   l      r(l)      h(i,j,l)

                   0    0.221002   18.343705

  2. Atomic kind: N                                     Number of atoms:       1

     Orbital Basis Set                                   TZVP-MOLOPT-PBE0-GTH-q5

       Number of orbital shell sets:                                           1
       Number of orbital shells:                                               7
       Number of primitive Cartesian functions:                                5
       Number of Cartesian basis functions:                                   18
       Number of spherical basis functions:                                   17
       Norm type:                                                              2

       Normalised Cartesian orbitals:

                        Set   Shell   Orbital            Exponent    Coefficient

                          1       1    2s                7.731912      -0.313182
                                                         2.850571      -0.166535
                                                         1.003306       0.247465
                                                         0.371727       0.196330
                                                         0.123237       0.036870

                          1       2    3s                7.731912       0.418226
                                                         2.850571       0.287670
                                                         1.003306      -0.363823
                                                         0.371727      -0.060570
                                                         0.123237       0.185518

                          1       3    4s                7.731912      -2.356221
                                                         2.850571      -1.374815
                                                         1.003306       2.070490
                                                         0.371727      -0.833331
                                                         0.123237       0.152714

                          1       4    3px               7.731912      -1.165756
                                                         2.850571      -1.052643
                                                         1.003306      -0.600184
                                                         0.371727      -0.169887
                                                         0.123237      -0.014373
                          1       4    3py               7.731912      -1.165756
                                                         2.850571      -1.052643
                                                         1.003306      -0.600184
                                                         0.371727      -0.169887
                                                         0.123237      -0.014373
                          1       4    3pz               7.731912      -1.165756
                                                         2.850571      -1.052643
                                                         1.003306      -0.600184
                                                         0.371727      -0.169887
                                                         0.123237      -0.014373

                          1       5    4px               7.731912       0.906026
                                                         2.850571       0.687835
                                                         1.003306       0.521535
                                                         0.371727      -0.051375
                                                         0.123237      -0.098659
                          1       5    4py               7.731912       0.906026
                                                         2.850571       0.687835
                                                         1.003306       0.521535
                                                         0.371727      -0.051375
                                                         0.123237      -0.098659
                          1       5    4pz               7.731912       0.906026
                                                         2.850571       0.687835
                                                         1.003306       0.521535
                                                         0.371727      -0.051375
                                                         0.123237      -0.098659

                          1       6    5px               7.731912       2.256402
                                                         2.850571       2.115285
                                                         1.003306       1.429059
                                                         0.371727      -0.598497
                                                         0.123237       0.066063
                          1       6    5py               7.731912       2.256402
                                                         2.850571       2.115285
                                                         1.003306       1.429059
                                                         0.371727      -0.598497
                                                         0.123237       0.066063
                          1       6    5pz               7.731912       2.256402
                                                         2.850571       2.115285
                                                         1.003306       1.429059
                                                         0.371727      -0.598497
                                                         0.123237       0.066063

                          1       7    4dx2              7.731912      -0.315878
                                                         2.850571       0.616541
                                                         1.003306       0.938985
                                                         0.371727       0.132048
                                                         0.123237       0.003785
                          1       7    4dxy              7.731912      -0.547116
                                                         2.850571       1.067881
                                                         1.003306       1.626371
                                                         0.371727       0.228715
                                                         0.123237       0.006557
                          1       7    4dxz              7.731912      -0.547116
                                                         2.850571       1.067881
                                                         1.003306       1.626371
                                                         0.371727       0.228715
                                                         0.123237       0.006557
                          1       7    4dy2              7.731912      -0.315878
                                                         2.850571       0.616541
                                                         1.003306       0.938985
                                                         0.371727       0.132048
                                                         0.123237       0.003785
                          1       7    4dyz              7.731912      -0.547116
                                                         2.850571       1.067881
                                                         1.003306       1.626371
                                                         0.371727       0.228715
                                                         0.123237       0.006557
                          1       7    4dz2              7.731912      -0.315878
                                                         2.850571       0.616541
                                                         1.003306       0.938985
                                                         0.371727       0.132048
                                                         0.123237       0.003785

     Auxiliary Fit Basis Set                                         admm-tzp-q5

       Number of orbital shell sets:                                           7
       Number of orbital shells:                                               7
       Number of primitive Cartesian functions:                                9
       Number of Cartesian basis functions:                                   18
       Number of spherical basis functions:                                   17
       Norm type:                                                              2

       Normalised Cartesian orbitals:

                        Set   Shell   Orbital            Exponent    Coefficient

                          1       1    1s                6.213162      -0.926209
                                                         0.716616       0.618274

                          2       1    1s                0.318713       0.302315

                          3       1    1s                0.156356       0.177213

                          4       1    1px               6.434402      -5.795363
                                                         1.908664       3.868591
                          4       1    1py               6.434402      -5.795363
                                                         1.908664       3.868591
                          4       1    1pz               6.434402      -5.795363
                                                         1.908664       3.868591

                          5       1    1px               0.596798       0.747695
                          5       1    1py               0.596798       0.747695
                          5       1    1pz               0.596798       0.747695

                          6       1    1px               0.168824       0.154253
                          6       1    1py               0.168824       0.154253
                          6       1    1pz               0.168824       0.154253

                          7       1    1dx2              0.817000       1.155575
                          7       1    1dxy              0.817000       2.001514
                          7       1    1dxz              0.817000       2.001514
                          7       1    1dy2              0.817000       1.155575
                          7       1    1dyz              0.817000       2.001514
                          7       1    1dz2              0.817000       1.155575

       Atomic covalent radius [Angstrom]:                                  0.750

       Atomic van der Waals radius [Angstrom]:                             1.550

     GTH Potential information for                                   GTH-PBE0-q5

       Description:                       Goedecker-Teter-Hutter pseudopotential
                                           Goedecker et al., PRB 54, 1703 (1996)
                                          Hartwigsen et al., PRB 58, 3641 (1998)
                                                      Krack, TCA 114, 145 (2005)

       Gaussian exponent of the core charge distribution:               6.196924
       Electronic configuration (s p d ...):                       2   3   0   0

       Parameters of the local part of the GTH pseudopotential:

                          rloc        C1          C2          C3          C4
                        0.284051  -12.396524    1.863724

       Parameters of the non-local part of the GTH pseudopotential:

                   l      r(l)      h(i,j,l)

                   0    0.255381   13.630734

  3. Atomic kind: C                                     Number of atoms:      24

     Orbital Basis Set                                   TZVP-MOLOPT-PBE0-GTH-q4

       Number of orbital shell sets:                                           1
       Number of orbital shells:                                               7
       Number of primitive Cartesian functions:                                5
       Number of Cartesian basis functions:                                   18
       Number of spherical basis functions:                                   17
       Norm type:                                                              2

       Normalised Cartesian orbitals:

                        Set   Shell   Orbital            Exponent    Coefficient

                          1       1    2s                5.376496      -0.218993
                                                         1.952413      -0.108276
                                                         0.698843       0.191100
                                                         0.255444       0.136636
                                                         0.087781       0.032851

                          1       2    3s                5.376496       0.549256
                                                         1.952413       0.351454
                                                         0.698843      -0.348382
                                                         0.255444      -0.039089
                                                         0.087781       0.141653

                          1       3    4s                5.376496      -2.562342
                                                         1.952413      -0.418475
                                                         0.698843       1.182996
                                                         0.255444      -0.576737
                                                         0.087781       0.128088

                          1       4    3px               5.376496      -0.760366
                                                         1.952413      -0.648237
                                                         0.698843      -0.392763
                                                         0.255444      -0.102799
                                                         0.087781      -0.009502
                          1       4    3py               5.376496      -0.760366
                                                         1.952413      -0.648237
                                                         0.698843      -0.392763
                                                         0.255444      -0.102799
                                                         0.087781      -0.009502
                          1       4    3pz               5.376496      -0.760366
                                                         1.952413      -0.648237
                                                         0.698843      -0.392763
                                                         0.255444      -0.102799
                                                         0.087781      -0.009502

                          1       5    4px               5.376496       0.859426
                                                         1.952413       0.720936
                                                         0.698843       0.438762
                                                         0.255444      -0.098659
                                                         0.087781      -0.050947
                          1       5    4py               5.376496       0.859426
                                                         1.952413       0.720936
                                                         0.698843       0.438762
                                                         0.255444      -0.098659
                                                         0.087781      -0.050947
                          1       5    4pz               5.376496       0.859426
                                                         1.952413       0.720936
                                                         0.698843       0.438762
                                                         0.255444      -0.098659
                                                         0.087781      -0.050947

                          1       6    5px               5.376496       1.787729
                                                         1.952413       1.915268
                                                         0.698843       0.387524
                                                         0.255444      -0.295602
                                                         0.087781       0.070933
                          1       6    5py               5.376496       1.787729
                                                         1.952413       1.915268
                                                         0.698843       0.387524
                                                         0.255444      -0.295602
                                                         0.087781       0.070933
                          1       6    5pz               5.376496       1.787729
                                                         1.952413       1.915268
                                                         0.698843       0.387524
                                                         0.255444      -0.295602
                                                         0.087781       0.070933

                          1       7    4dx2              5.376496      -0.736044
                                                         1.952413       0.844054
                                                         0.698843       0.492915
                                                         0.255444       0.056751
                                                         0.087781       0.003197
                          1       7    4dxy              5.376496      -1.274866
                                                         1.952413       1.461945
                                                         0.698843       0.853755
                                                         0.255444       0.098295
                                                         0.087781       0.005538
                          1       7    4dxz              5.376496      -1.274866
                                                         1.952413       1.461945
                                                         0.698843       0.853755
                                                         0.255444       0.098295
                                                         0.087781       0.005538
                          1       7    4dy2              5.376496      -0.736044
                                                         1.952413       0.844054
                                                         0.698843       0.492915
                                                         0.255444       0.056751
                                                         0.087781       0.003197
                          1       7    4dyz              5.376496      -1.274866
                                                         1.952413       1.461945
                                                         0.698843       0.853755
                                                         0.255444       0.098295
                                                         0.087781       0.005538
                          1       7    4dz2              5.376496      -0.736044
                                                         1.952413       0.844054
                                                         0.698843       0.492915
                                                         0.255444       0.056751
                                                         0.087781       0.003197

     Auxiliary Fit Basis Set                                         admm-tzp-q4

       Number of orbital shell sets:                                           7
       Number of orbital shells:                                               7
       Number of primitive Cartesian functions:                                9
       Number of Cartesian basis functions:                                   18
       Number of spherical basis functions:                                   17
       Norm type:                                                              2

       Normalised Cartesian orbitals:

                        Set   Shell   Orbital            Exponent    Coefficient

                          1       1    1s                8.477503       0.595236
                                                         3.577003       1.575378

                          2       1    1s                0.495726       0.421057

                          3       1    1s                0.159172       0.179601

                          4       1    1px               4.986355       0.952283
                                                         1.664384       2.520356
                          4       1    1py               4.986355       0.952283
                                                         1.664384       2.520356
                          4       1    1pz               4.986355       0.952283
                                                         1.664384       2.520356

                          5       1    1px               0.555716       0.683921
                          5       1    1py               0.555716       0.683921
                          5       1    1pz               0.555716       0.683921

                          6       1    1px               0.158157       0.142168
                          6       1    1py               0.158157       0.142168
                          6       1    1pz               0.158157       0.142168

                          7       1    1dx2              0.550000       0.578155
                          7       1    1dxy              0.550000       1.001394
                          7       1    1dxz              0.550000       1.001394
                          7       1    1dy2              0.550000       0.578155
                          7       1    1dyz              0.550000       1.001394
                          7       1    1dz2              0.550000       0.578155

       Atomic covalent radius [Angstrom]:                                  0.770

       Atomic van der Waals radius [Angstrom]:                             1.700

     GTH Potential information for                                   GTH-PBE0-q4

       Description:                       Goedecker-Teter-Hutter pseudopotential
                                           Goedecker et al., PRB 54, 1703 (1996)
                                          Hartwigsen et al., PRB 58, 3641 (1998)
                                                      Krack, TCA 114, 145 (2005)

       Gaussian exponent of the core charge distribution:               4.321387
       Electronic configuration (s p d ...):                       2   2   0   0

       Parameters of the local part of the GTH pseudopotential:

                          rloc        C1          C2          C3          C4
                        0.340152   -8.756260    1.332124

       Parameters of the non-local part of the GTH pseudopotential:

                   l      r(l)      h(i,j,l)

                   0    0.302558    9.589804

  4. Atomic kind: H                                     Number of atoms:      15

     Orbital Basis Set                                   TZVP-MOLOPT-PBE0-GTH-q1

       Number of orbital shell sets:                                           1
       Number of orbital shells:                                               4
       Number of primitive Cartesian functions:                                5
       Number of Cartesian basis functions:                                    6
       Number of spherical basis functions:                                    6
       Norm type:                                                              2

       Normalised Cartesian orbitals:

                        Set   Shell   Orbital            Exponent    Coefficient

                          1       1    2s                9.403766       0.123674
                                                         2.192362       0.168611
                                                         0.707857       0.149725
                                                         0.374957       0.108856
                                                         0.151426       0.065049

                          1       2    3s                9.403766      -0.608614
                                                         2.192362      -1.030992
                                                         0.707857      -0.715321
                                                         0.374957       0.952708
                                                         0.151426      -0.195383

                          1       3    4s                9.403766      -0.406975
                                                         2.192362      -0.501267
                                                         0.707857      -0.409597
                                                         0.374957      -0.047909
                                                         0.151426       0.139022

                          1       4    3px               9.403766      -1.346673
                                                         2.192362       0.842999
                                                         0.707857       0.270790
                                                         0.374957       0.128277
                                                         0.151426       0.052890
                          1       4    3py               9.403766      -1.346673
                                                         2.192362       0.842999
                                                         0.707857       0.270790
                                                         0.374957       0.128277
                                                         0.151426       0.052890
                          1       4    3pz               9.403766      -1.346673
                                                         2.192362       0.842999
                                                         0.707857       0.270790
                                                         0.374957       0.128277
                                                         0.151426       0.052890

     Auxiliary Fit Basis Set                                         admm-tzp-q1

       Number of orbital shell sets:                                           4
       Number of orbital shells:                                               4
       Number of primitive Cartesian functions:                                5
       Number of Cartesian basis functions:                                    6
       Number of spherical basis functions:                                    6
       Norm type:                                                              2

       Normalised Cartesian orbitals:

                        Set   Shell   Orbital            Exponent    Coefficient

                          1       1    1s                9.284181       0.722156
                                                         2.188955       1.100335

                          2       1    1s                0.569305       0.467109

                          3       1    1s                0.136639       0.160173

                          4       1    1px               0.727000       0.956881
                          4       1    1py               0.727000       0.956881
                          4       1    1pz               0.727000       0.956881

       Atomic covalent radius [Angstrom]:                                  0.320

       Atomic van der Waals radius [Angstrom]:                             1.090

     GTH Potential information for                                   GTH-PBE0-q1

       Description:                       Goedecker-Teter-Hutter pseudopotential
                                           Goedecker et al., PRB 54, 1703 (1996)
                                          Hartwigsen et al., PRB 58, 3641 (1998)
                                                      Krack, TCA 114, 145 (2005)

       Gaussian exponent of the core charge distribution:              12.438305
       Electronic configuration (s p d ...):                       1   0   0   0

       Parameters of the local part of the GTH pseudopotential:

                          rloc        C1          C2          C3          C4
                        0.200495   -4.177803    0.724039

  5. Atomic kind: F                                     Number of atoms:       6

     Orbital Basis Set                                   TZVP-MOLOPT-PBE0-GTH-q7

       Number of orbital shell sets:                                           1
       Number of orbital shells:                                               7
       Number of primitive Cartesian functions:                                5
       Number of Cartesian basis functions:                                   18
       Number of spherical basis functions:                                   17
       Norm type:                                                              2

       Normalised Cartesian orbitals:

                        Set   Shell   Orbital            Exponent    Coefficient

                          1       1    2s               13.315019       0.499506
                                                         4.625120       0.230698
                                                         1.622723      -0.431362
                                                         0.552162      -0.274170
                                                         0.173303      -0.029246

                          1       2    3s               13.315019      -0.307898
                                                         4.625120      -0.142814
                                                         1.622723       0.200427
                                                         0.552162       0.061810
                                                         0.173303      -0.221046

                          1       3    4s               13.315019      -2.887914
                                                         4.625120      -0.069004
                                                         1.622723      -0.845102
                                                         0.552162       0.222846
                                                         0.173303      -0.009491

                          1       4    3px              13.315019      -2.268354
                                                         4.625120      -1.929312
                                                         1.622723      -0.977371
                                                         0.552162      -0.282701
                                                         0.173303      -0.035518
                          1       4    3py              13.315019      -2.268354
                                                         4.625120      -1.929312
                                                         1.622723      -0.977371
                                                         0.552162      -0.282701
                                                         0.173303      -0.035518
                          1       4    3pz              13.315019      -2.268354
                                                         4.625120      -1.929312
                                                         1.622723      -0.977371
                                                         0.552162      -0.282701
                                                         0.173303      -0.035518

                          1       5    4px              13.315019       1.926418
                                                         4.625120       1.392974
                                                         1.622723       0.830075
                                                         0.552162       0.141499
                                                         0.173303      -0.170240
                          1       5    4py              13.315019       1.926418
                                                         4.625120       1.392974
                                                         1.622723       0.830075
                                                         0.552162       0.141499
                                                         0.173303      -0.170240
                          1       5    4pz              13.315019       1.926418
                                                         4.625120       1.392974
                                                         1.622723       0.830075
                                                         0.552162       0.141499
                                                         0.173303      -0.170240

                          1       6    5px              13.315019       3.596517
                                                         4.625120       2.849145
                                                         1.622723       2.652714
                                                         0.552162      -0.770748
                                                         0.173303       0.019979
                          1       6    5py              13.315019       3.596517
                                                         4.625120       2.849145
                                                         1.622723       2.652714
                                                         0.552162      -0.770748
                                                         0.173303       0.019979
                          1       6    5pz              13.315019       3.596517
                                                         4.625120       2.849145
                                                         1.622723       2.652714
                                                         0.552162      -0.770748
                                                         0.173303       0.019979

                          1       7    4dx2             13.315019       0.600589
                                                         4.625120       0.444203
                                                         1.622723       1.624169
                                                         0.552162       0.397328
                                                         0.173303      -0.001351
                          1       7    4dxy             13.315019       1.040250
                                                         4.625120       0.769381
                                                         1.622723       2.813144
                                                         0.552162       0.688193
                                                         0.173303      -0.002340
                          1       7    4dxz             13.315019       1.040250
                                                         4.625120       0.769381
                                                         1.622723       2.813144
                                                         0.552162       0.688193
                                                         0.173303      -0.002340
                          1       7    4dy2             13.315019       0.600589
                                                         4.625120       0.444203
                                                         1.622723       1.624169
                                                         0.552162       0.397328
                                                         0.173303      -0.001351
                          1       7    4dyz             13.315019       1.040250
                                                         4.625120       0.769381
                                                         1.622723       2.813144
                                                         0.552162       0.688193
                                                         0.173303      -0.002340
                          1       7    4dz2             13.315019       0.600589
                                                         4.625120       0.444203
                                                         1.622723       1.624169
                                                         0.552162       0.397328
                                                         0.173303      -0.001351

     Auxiliary Fit Basis Set                                         admm-tzp-q7

       Number of orbital shell sets:                                           7
       Number of orbital shells:                                               7
       Number of primitive Cartesian functions:                                9
       Number of Cartesian basis functions:                                   18
       Number of spherical basis functions:                                   17
       Norm type:                                                              2

       Normalised Cartesian orbitals:

                        Set   Shell   Orbital            Exponent    Coefficient

                          1       1    1s               10.766917      -1.351007
                                                         1.253412       0.939129

                          2       1    1s                0.467834       0.403161

                          3       1    1s                0.185465       0.201421

                          4       1    1px              11.043255     -10.224217
                                                         3.155367       7.107185
                          4       1    1py              11.043255     -10.224217
                                                         3.155367       7.107185
                          4       1    1pz              11.043255     -10.224217
                                                         3.155367       7.107185

                          5       1    1px               0.944786       1.327722
                          5       1    1py               0.944786       1.327722
                          5       1    1pz               0.944786       1.327722

                          6       1    1px               0.256896       0.260697
                          6       1    1py               0.256896       0.260697
                          6       1    1pz               0.256896       0.260697

                          7       1    1dx2              1.640000       3.911886
                          7       1    1dxy              1.640000       6.775585
                          7       1    1dxz              1.640000       6.775585
                          7       1    1dy2              1.640000       3.911886
                          7       1    1dyz              1.640000       6.775585
                          7       1    1dz2              1.640000       3.911886

       Atomic covalent radius [Angstrom]:                                  0.720

       Atomic van der Waals radius [Angstrom]:                             1.470

     GTH Potential information for                                   GTH-PBE0-q7

       Description:                       Goedecker-Teter-Hutter pseudopotential
                                           Goedecker et al., PRB 54, 1703 (1996)
                                          Hartwigsen et al., PRB 58, 3641 (1998)
                                                      Krack, TCA 114, 145 (2005)

       Gaussian exponent of the core charge distribution:              11.259691
       Electronic configuration (s p d ...):                       2   5   0   0

       Parameters of the local part of the GTH pseudopotential:

                          rloc        C1          C2          C3          C4
                        0.210728  -21.776680    3.190005

       Parameters of the non-local part of the GTH pseudopotential:

                   l      r(l)      h(i,j,l)

                   0    0.194875   23.733764


 MOLECULE KIND INFORMATION


 All atoms are their own molecule, skipping detailed information


 TOTAL NUMBERS AND MAXIMUM NUMBERS

  Total number of            - Atomic kinds:                                   5
                             - Atoms:                                         47
                             - Shell sets:                                    47
                             - Shells:                                       284
                             - Primitive Cartesian functions:                235
                             - Cartesian basis functions:                    666
                             - Spherical basis functions:                    634

  Maximum angular momentum of- Orbital basis functions:                        2
                             - Local part of the GTH pseudopotential:          2
                             - Non-local part of the GTH pseudopotential:      0

  AUX_FIT ADMM-Basis: 
  Total number of            - Shell sets:                                   284
                             - Shells:                                       284
                             - Primitive Cartesian functions:                363
                             - Cartesian basis functions:                    666
                             - Spherical basis functions:                    634
                               Maximum angular momentum                        2


 MODULE QUICKSTEP: ATOMIC COORDINATES IN ANGSTROM

   Atom Kind Element         X             Y             Z       Z(eff)     Mass
      1    1 O     8     15.509845      9.755274     12.534693   6.0000  15.9994
      2    2 N     7     13.520384     14.832906     15.752211   5.0000  14.0067
      3    3 C     6     11.896026      9.056505      8.872023   4.0000  12.0107
      4    4 H     1     11.482920      9.919497      9.378453   1.0000   1.0079
      5    3 C     6     11.236945      8.550498      7.768002   4.0000  12.0107
      6    4 H     1     10.320782      9.012897      7.424407   1.0000   1.0079
      7    3 C     6     11.748906      7.443128      7.102328   4.0000  12.0107
      8    3 C     6     12.917140      6.841041      7.549665   4.0000  12.0107
      9    4 H     1     13.310540      5.971954      7.037097   1.0000   1.0079
     10    3 C     6     13.571606      7.353323      8.653644   4.0000  12.0107
     11    4 H     1     14.484277      6.882595      9.000257   1.0000   1.0079
     12    3 C     6     13.078671      8.471478      9.333941   4.0000  12.0107
     13    3 C     6     13.827678      8.967586     10.478357   4.0000  12.0107
     14    4 H     1     14.734024      8.420907     10.727793   1.0000   1.0079
     15    3 C     6     13.549293     10.022544     11.253622   4.0000  12.0107
     16    4 H     1     12.681239     10.644721     11.078291   1.0000   1.0079
     17    3 C     6     14.477805     10.387041     12.347254   4.0000  12.0107
     18    3 C     6     14.157186     11.557955     13.205922   4.0000  12.0107
     19    3 C     6     15.204349     12.145173     13.921206   4.0000  12.0107
     20    4 H     1     16.198812     11.732972     13.807647   1.0000   1.0079
     21    3 C     6     14.981312     13.230861     14.737658   4.0000  12.0107
     22    4 H     1     15.795587     13.707883     15.268768   1.0000   1.0079
     23    3 C     6     13.686161     13.725855     14.913630   4.0000  12.0107
     24    3 C     6     12.632528     13.142445     14.208105   4.0000  12.0107
     25    4 H     1     11.631489     13.546281     14.305953   1.0000   1.0079
     26    3 C     6     12.873414     12.080365     13.351715   4.0000  12.0107
     27    4 H     1     12.037745     11.646231     12.816548   1.0000   1.0079
     28    3 C     6     12.574170     14.838006     16.606879   4.0000  12.0107
     29    4 H     1     11.913171     13.973108     16.745878   1.0000   1.0079
     30    3 C     6     12.333053     15.982895     17.482510   4.0000  12.0107
     31    3 C     6     13.108645     17.139739     17.386495   4.0000  12.0107
     32    4 H     1     13.895073     17.182165     16.643366   1.0000   1.0079
     33    3 C     6     12.872151     18.206199     18.229101   4.0000  12.0107
     34    4 H     1     13.471283     19.104495     18.153135   1.0000   1.0079
     35    3 C     6     11.855706     18.128870     19.176884   4.0000  12.0107
     36    3 C     6     11.077595     16.985648     19.281722   4.0000  12.0107
     37    4 H     1     10.287188     16.933239     20.019244   1.0000   1.0079
     38    3 C     6     11.317872     15.916955     18.434370   4.0000  12.0107
     39    4 H     1     10.711804     15.020861     18.514135   1.0000   1.0079
     40    3 C     6     11.071831      6.896661      5.883445   4.0000  12.0107
     41    3 C     6     11.640799     19.265762     20.128172   4.0000  12.0107
     42    5 F     9      9.801188      7.323783      5.761036   7.0000  18.9984
     43    5 F     9     11.712817      7.252601      4.744463   7.0000  18.9984
     44    5 F     9     11.034375      5.547261      5.896723   7.0000  18.9984
     45    5 F     9     10.354245     19.370444     20.522260   7.0000  18.9984
     46    5 F     9     11.982572     20.452739     19.580176   7.0000  18.9984
     47    5 F     9     12.382294     19.107353     21.255537   7.0000  18.9984



 SCF PARAMETERS         Density guess:                                   RESTART
                        --------------------------------------------------------
                        max_scf:                                             128
                        max_scf_history:                                       0
                        max_diis:                                              4
                        --------------------------------------------------------
                        eps_scf:                                        1.00E-05
                        eps_scf_history:                                0.00E+00
                        eps_diis:                                       1.00E-01
                        eps_eigval:                                     1.00E-05
                        --------------------------------------------------------
                        level_shift [a.u.]:                             0.000000
                        added MOs                                        70    0
                        --------------------------------------------------------
                        Mixing method:                            BROYDEN_MIXING
                                                charge density mixing in g-space
                        --------------------------------------------------------
                        No outer SCF

 PW_GRID| Information for grid number                                          1
 PW_GRID| Grid distributed over                                    90 processors
 PW_GRID| Real space group dimensions                                    90    1
 PW_GRID| the grid is blocked:                                                NO
 PW_GRID| Cutoff [a.u.]                                                    250.0
 PW_GRID| spherical cutoff:                                                   NO
 PW_GRID|   Bounds   1           -180     179                Points:         360
 PW_GRID|   Bounds   2           -180     179                Points:         360
 PW_GRID|   Bounds   3           -180     179                Points:         360
 PW_GRID| Volume element (a.u.^3)  0.2542E-02     Volume (a.u.^3)    118608.7286
 PW_GRID| Grid span                                                    FULLSPACE
 PW_GRID|   Distribution                         Average         Max         Min
 PW_GRID|   G-Vectors                           518400.0      518400      518400
 PW_GRID|   G-Rays                                1440.0        1440        1440
 PW_GRID|   Real Space Points                   518400.0      518400      518400

 PW_GRID| Information for grid number                                          2
 PW_GRID| Number of the reference grid                                         1
 PW_GRID| Grid distributed over                                    90 processors
 PW_GRID| Real space group dimensions                                    90    1
 PW_GRID| the grid is blocked:                                                NO
 PW_GRID| Cutoff [a.u.]                                                     83.3
 PW_GRID| spherical cutoff:                                                   NO
 PW_GRID|   Bounds   1           -108     107                Points:         216
 PW_GRID|   Bounds   2           -108     107                Points:         216
 PW_GRID|   Bounds   3           -108     107                Points:         216
 PW_GRID| Volume element (a.u.^3)  0.1177E-01     Volume (a.u.^3)    118608.7286
 PW_GRID| Grid span                                                    FULLSPACE
 PW_GRID|   Distribution                         Average         Max         Min
 PW_GRID|   G-Vectors                           111974.4      112320      111672
 PW_GRID|   G-Rays                                 518.4         520         517
 PW_GRID|   Real Space Points                   111974.4      139968       93312

 PW_GRID| Information for grid number                                          3
 PW_GRID| Number of the reference grid                                         1
 PW_GRID| Grid distributed over                                    90 processors
 PW_GRID| Real space group dimensions                                    90    1
 PW_GRID| the grid is blocked:                                                NO
 PW_GRID| Cutoff [a.u.]                                                     27.8
 PW_GRID| spherical cutoff:                                                   NO
 PW_GRID|   Bounds   1            -60      59                Points:         120
 PW_GRID|   Bounds   2            -60      59                Points:         120
 PW_GRID|   Bounds   3            -60      59                Points:         120
 PW_GRID| Volume element (a.u.^3)  0.6864E-01     Volume (a.u.^3)    118608.7286
 PW_GRID| Grid span                                                    FULLSPACE
 PW_GRID|   Distribution                         Average         Max         Min
 PW_GRID|   G-Vectors                            19200.0       19320       19080
 PW_GRID|   G-Rays                                 160.0         161         159
 PW_GRID|   Real Space Points                    19200.0       28800       14400

 PW_GRID| Information for grid number                                          4
 PW_GRID| Number of the reference grid                                         1
 PW_GRID| Grid distributed over                                    90 processors
 PW_GRID| Real space group dimensions                                     9   10
 PW_GRID| the grid is blocked:                                                NO
 PW_GRID| Cutoff [a.u.]                                                      9.3
 PW_GRID| spherical cutoff:                                                   NO
 PW_GRID|   Bounds   1            -36      35                Points:          72
 PW_GRID|   Bounds   2            -36      35                Points:          72
 PW_GRID|   Bounds   3            -36      35                Points:          72
 PW_GRID| Volume element (a.u.^3)  0.3178         Volume (a.u.^3)    118608.7286
 PW_GRID| Grid span                                                    FULLSPACE
[...]
 COUNTER                                    TOTAL       BLAS       SMM       ACC
 flops     6 x     8 x     6               259200       0.0%    100.0%      0.0%
 flops    17 x     8 x     6              1566720       0.0%    100.0%      0.0%
 flops     6 x     8 x    17              1566720       0.0%    100.0%      0.0%
 flops    17 x     8 x    17              9469952       0.0%    100.0%      0.0%
 flops     6 x     6 x    24             20528640       0.0%    100.0%      0.0%
 flops     6 x     6 x    18             93312000       0.0%    100.0%      0.0%
 flops     6 x    17 x    24            116328960       0.0%    100.0%      0.0%
 flops    17 x     6 x    24            116328960       0.0%    100.0%      0.0%
 flops     6 x    26 x     6            252720000       0.0%    100.0%      0.0%
 flops     6 x    18 x     6            359834400       0.0%    100.0%      0.0%
 flops     6 x     6 x    32            441262080       0.0%    100.0%      0.0%
 flops     6 x    17 x    18            528768000       0.0%    100.0%      0.0%
 flops    17 x     6 x    18            528768000       0.0%    100.0%      0.0%
 flops    17 x    17 x    24            725117184       0.0%    100.0%      0.0%
 flops    17 x    26 x     6           1527552000       0.0%    100.0%      0.0%
 flops     6 x    26 x    17           1527552000       0.0%    100.0%      0.0%
 flops    17 x    18 x     6           2174999040       0.0%    100.0%      0.0%
 flops     6 x    18 x    17           2174999040       0.0%    100.0%      0.0%
 flops     6 x    17 x    32           2500485120       0.0%    100.0%      0.0%
 flops    17 x     6 x    32           2500485120       0.0%    100.0%      0.0%
 flops    17 x    17 x    18           3295987200       0.0%    100.0%      0.0%
 flops     6 x    32 x     6           7208352000       0.0%    100.0%      0.0%
 flops    17 x    26 x    17           9233203200       0.0%    100.0%      0.0%
 flops    17 x    18 x    17          13146660864       0.0%    100.0%      0.0%
 flops    17 x    17 x    32          15586357248       0.0%    100.0%      0.0%
 flops    17 x    32 x     6          43570483200       0.0%    100.0%      0.0%
 flops     6 x    32 x    17          43570483200       0.0%    100.0%      0.0%
 flops    17 x    32 x    17         263359365120       0.0%    100.0%      0.0%
 flops inhomo. stacks                           0       0.0%      0.0%      0.0%
 flops total                       414.572795E+09       0.0%    100.0%      0.0%
 flops max/rank                     11.699244E+09       0.0%    100.0%      0.0%
 matmuls inhomo. stacks                         0       0.0%      0.0%      0.0%
 matmuls total                           37360629       0.0%    100.0%      0.0%
 number of processed stacks               9809622       0.0%    100.0%      0.0%
 average stack size                                     0.0       3.8       0.0
 marketing flops                   434.191401E+09
 -------------------------------------------------------------------------------
 # multiplications                           2536
 max memory usage/rank               1.512792E+09
 # max total images/rank                        5
 # max 3D layers                                1
 # MPI messages exchanged                12096720
 MPI messages size (bytes):
  total size                       101.137785E+09
  min size                           0.000000E+00
  max size                          31.280000E+03
  average size                       8.360761E+03
 MPI breakdown and total messages size (bytes):
             size <=      128             5192325                        0
       128 < size <=     8192             1624931               7335728832
      8192 < size <=    32768             5279464              93799261376
     32768 < size <=   131072                   0                        0
    131072 < size <=  4194304                   0                        0
   4194304 < size <= 16777216                   0                        0
  16777216 < size                               0                        0
 -------------------------------------------------------------------------------

 *** WARNING in dbcsr_mm.F:291 :: Using a non-square number of MPI ranks ***
 *** might lead to poor performance. Used ranks: 90 Suggested: 81 169    ***

 -------------------------------------------------------------------------------
 -                                                                             -
 -                      DBCSR MESSAGE PASSING PERFORMANCE                      -
 -                                                                             -
 -------------------------------------------------------------------------------
 ROUTINE             CALLS      AVE VOLUME [Bytes]
 MP_Bcast               29                     12.
 MP_Allreduce         9828                      8.
 MP_Alltoall         53840                  31062.
 MP_ISend           289104                   5099.
 MP_IRecv           290502                   4839.
 -------------------------------------------------------------------------------

 -------------------------------------------------------------------------------
 -                                                                             -
 -                                DBM STATISTICS                               -
 -                                                                             -
 -------------------------------------------------------------------------------
    M  x    N  x    K                                          COUNT     PERCENT
 -------------------------------------------------------------------------------

 -------------------------------------------------------------------------------
 -                                                                             -
 -                                GRID STATISTICS                              -
 -                                                                             -
 -------------------------------------------------------------------------------
 LP    KERNEL             BACKEND                              COUNT     PERCENT
 4     collocate ortho    CPU                                2065757      21.85%
 4     integrate ortho    CPU                                2044093      21.62%
 3     collocate ortho    CPU                                1732934      18.33%
 3     integrate ortho    CPU                                1634716      17.29%
 2     collocate ortho    CPU                                 737323       7.80%
 1     collocate ortho    CPU                                 476500       5.04%
 2     integrate ortho    CPU                                 437297       4.63%
 0     collocate ortho    CPU                                 312200       3.30%
 0     collocate general  CPU                                   8460       0.09%
 0     integrate general  CPU                                   4230       0.04%
 -------------------------------------------------------------------------------

 MEMORY| Estimated peak process memory [MiB]                                1443

 -------------------------------------------------------------------------------
 ----                             MULTIGRID INFO                            ----
 -------------------------------------------------------------------------------
 count for grid        1:        9071295          cutoff [a.u.]          250.00
 count for grid        2:        3719081          cutoff [a.u.]           83.33
 count for grid        3:        1862062          cutoff [a.u.]           27.78
 count for grid        4:         268513          cutoff [a.u.]            9.26
 count for grid        5:           8100          cutoff [a.u.]            3.09
 count for grid        6:              0          cutoff [a.u.]            1.03
 total gridlevel count  :       14929051

 -------------------------------------------------------------------------------
 -                                                                             -
 -                         MESSAGE PASSING PERFORMANCE                         -
 -                                                                             -
 -------------------------------------------------------------------------------

 ROUTINE             CALLS      AVE VOLUME [Bytes]
 MP_Group                6
 MP_Bcast              934               12427513.
 MP_Allreduce        45121                    101.
 MP_Sync              4923
 MP_Alltoall         20407               18775937.
 MP_SendRecv        143468                  68848.
 MP_ISendRecv       239944                  49999.
 MP_Wait            311840
 MP_comm_split         120
 MP_ISend            86275                 284261.
 MP_IRecv            88485                 277061.
 MP_Write_All            2                6825600.
 -------------------------------------------------------------------------------


 -------------------------------------------------------------------------------
 -                                                                             -
 -                           R E F E R E N C E S                               -
 -                                                                             -
 -------------------------------------------------------------------------------
 
 CP2K version 2023.2, the CP2K developers group (2023).
 CP2K is freely available from https://www.cp2k.org/ .

 Kuehne,Thomas D.; Iannuzzi,Marcella; Del Ben,Mauro;
 Rybkin,Vladimir V.; Seewald,Patrick; Stein,Frederick; Laino,Teodoro;
 Khaliullin,Rustam Z.; Schuett,Ole; Schiffmann,Florian; Golze,Dorothea;
 Wilhelm,Jan; Chulkov,Sergey; Bani-Hashemian,Mohammad Hossein;
 Weber,Valery; Borstnik,Urban; Taillefumier,Mathieu;
 Jakobovits,Alice Shoshana; Lazzaro,Alfio; Pabst,Hans; Mueller,Tiziano;
 Schade,Robert; Guidon,Manuel; Andermatt,Samuel; Holmberg,Nico;
 Schenter,Gregory K.; Hehn,Anna; Bussy,Augustin; Belleflamme,Fabian;
 Tabacchi,Gloria; Gloess,Andreas; Lass,Michael; Bethune,Iain;
 Mundy,Christopher J.; Plessl,Christian; Watkins,Matt;
 VandeVondele,Joost; Krack,Matthias; Hutter,Juerg. 
 The Journal of Chemical Physics, 152 (19), (2020). 
 CP2K: An electronic structure and molecular dynamics software package -
 Quickstep: Efficient and accurate electronic structure calculations.
 https://doi.org/10.1063/5.0007045

 Yin, Wen-Jin; Krack, Matthias; Li, Xibo; Chen, Li-Zhen; Liu, Li-Min. 
 Prog. Nat. Sci., 27 (2), 283-288 (2017). 
 Periodic continuum solvation model integrated with first-principles
 calculations for solid surfaces.
 https://doi.org/10.1016/j.pnsc.2017.03.003

 Schuett, Ole; Messmer, Peter; Hutter, Juerg; VandeVondele, Joost. 
 Electronic Structure Calculations on Graphics Processing Units, John
 Wiley & Sons, Ltd, 173-190 (2016). 
 GPU-Accelerated Sparse Matrix-Matrix Multiplication for
 Linear Scaling Density Functional Theory.
 https://doi.org/10.1002/9781118670712.ch8

 Heinecke, A; Henry, G; Hutchinson, M; Pabst, H. 
 Proceedings of Intl. Supercomputing Conference, 981-991 (2016). 
 LIBXSMM: Accelerating Small Matrix Multiplications
 by Runtime Code Generation.
 https://doi.org/10.1109/SC.2016.83

 Borstnik, U; VandeVondele, J; Weber, V; Hutter, J. 
 PARALLEL COMPUTING, 40 (5-6), 47-58 (2014). 
 Sparse matrix multiplication: The distributed block-compressed sparse
 row library.
 https://doi.org/10.1016/j.parco.2014.03.012

 Hutter, J; Iannuzzi, M; Schiffmann, F; VandeVondele, J. 
 WIREs Comput Mol Sci., 4 (1), 15-25 (2014). 
 CP2K: atomistic simulations of condensed matter systems.
 https://doi.org/10.1002/wcms.1159

 Guidon, M; Hutter, J; VandeVondele, J. 
 JOURNAL OF CHEMICAL THEORY AND COMPUTATION, 6 (8), 2348-2364 (2010). 
 Auxiliary Density Matrix Methods for Hartree-Fock Exchange Calculations.
 https://doi.org/10.1021/ct1002225

 Guidon, M; Hutter, J; VandeVondele, J. 
 JOURNAL OF CHEMICAL THEORY AND COMPUTATION, 5 (11), 3010-3021 (2009). 
 Robust Periodic Hartree-Fock Exchange for Large-Scale Simulations Using
 Gaussian Basis Sets.
 https://doi.org/10.1021/ct900494g

 Guidon, M; Schiffmann, F; Hutter, J; VandeVondele, J. 
 JOURNAL OF CHEMICAL PHYSICS, 128 (21), 214104 (2008). 
 Ab initio molecular dynamics using hybrid density functionals.
 https://doi.org/10.1063/1.2931945

 VandeVondele, J; Hutter, J. 
 JOURNAL OF CHEMICAL PHYSICS, 127 (11), 114105 (2007). 
 Gaussian basis sets for accurate calculations on molecular systems in
 gas and condensed phases.
 https://doi.org/10.1063/1.2770708

 Genovese, L; Deutsch, T; Goedecker, S. 
 JOURNAL OF CHEMICAL PHYSICS, 127 (5), 054704 (2007). 
 Efficient and accurate three-dimensional Poisson solver for surface
 problems.
 https://doi.org/10.1063/1.2754685

 Genovese, L; Deutsch, T; Neelov, A; Goedecker, S; Beylkin, G. 
 JOURNAL OF CHEMICAL PHYSICS, 125 (7), 074105 (2006). 
 Efficient solution of Poisson's equation with free boundary conditions.
 https://doi.org/10.1063/1.2335442

 Krack, M. 
 THEORETICAL CHEMISTRY ACCOUNTS, 114 (1-3), 145-152 (2005). 
 Pseudopotentials for H to Kr optimized for gradient-corrected
 exchange-correlation functionals.
 https://doi.org/10.1007/s00214-005-0655-y

 VandeVondele, J; Krack, M; Mohamed, F; Parrinello, M; Chassaing, T;
 Hutter, J. COMPUTER PHYSICS COMMUNICATIONS, 167 (2), 103-128 (2005). 
 QUICKSTEP: Fast and accurate density functional calculations using a
 mixed Gaussian and plane waves approach.
 https://doi.org/10.1016/j.cpc.2004.12.014

 Frigo, M; Johnson, SG. 
 PROCEEDINGS OF THE IEEE, 93 (2), 216-231 (2005). 
 The design and implementation of FFTW3.
 https://doi.org/10.1109/JPROC.2004.840301

 Iannuzzi, M; Chassaing, T; Wallman, T; Hutter, J. 
 CHIMIA, 59 (7-8), 499-503 (2005). 
 Ground and excited state density functional calculations with the
 Gaussian and augmented-plane-wave method.
 https://doi.org/10.2533/000942905777676164

 Martin,Richard L.. 
 The Journal of Chemical Physics, 118 (11), 4775-4777 (2003). 
 Natural transition orbitals.
 https://doi.org/10.1063/1.1558471

 Fattebert, JL; Gygi, F. J. Comput. Chem., 23 (6), (2002). 
 Density functional theory for efficient ab initio molecular dynamics
 simulations in solution.
 https://doi.org/10.1002/jcc.10069

 Hartwigsen, C; Goedecker, S; Hutter, J. 
 PHYSICAL REVIEW B, 58 (7), 3641-3662 (1998). 
 Relativistic separable dual-space Gaussian pseudopotentials from H to Rn.
 https://doi.org/10.1103/PhysRevB.58.3641

 Lippert, G; Hutter, J; Parrinello, M. 
 MOLECULAR PHYSICS, 92 (3), 477-487 (1997). 
 A hybrid Gaussian and plane wave density functional scheme.
 https://doi.org/10.1080/002689797170220

 Perdew, JP; Burke, K; Ernzerhof, M. 
 PHYSICAL REVIEW LETTERS, 77 (18), 3865-3868 (1996). 
 Generalized gradient approximation made simple.
 https://doi.org/10.1103/PhysRevLett.77.3865

 Goedecker, S; Teter, M; Hutter, J. 
 PHYSICAL REVIEW B, 54 (3), 1703-1710 (1996). 
 Separable dual-space Gaussian pseudopotentials.
 https://doi.org/10.1103/PhysRevB.54.1703


 -------------------------------------------------------------------------------
 -                                                                             -
 -                                T I M I N G                                  -
 -                                                                             -
 -------------------------------------------------------------------------------
 SUBROUTINE                       CALLS  ASD         SELF TIME        TOTAL TIME
                                MAXIMUM       AVERAGE  MAXIMUM  AVERAGE  MAXIMUM
 CP2K                                 1  1.0    0.302    0.355 2171.771 2171.774
 qs_energies                          1  2.0    0.000    0.001 2169.933 2169.940
 scf_env_do_scf                       1  3.0    0.000    0.000 1119.412 1119.414
 scf_env_do_scf_inner_loop           49  4.0    0.001    0.013 1119.412 1119.414
 pw_poisson_solve                  1342  9.2   47.214   73.704 1094.640 1096.386
 qs_ks_update_qs_env                 49  5.0    0.000    0.000 1072.958 1072.969
 rebuild_ks_matrix                   49  6.0    0.000    0.000 1072.955 1072.966
 qs_ks_build_kohn_sham_matrix        49  7.0    0.008    0.009 1072.955 1072.966
 qs_energies_properties               1  3.0    0.000    0.000 1044.818 1044.824
 tddfpt                               1  4.0    0.000    0.006 1044.818 1044.824
 tddfpt_energies                      1  5.0    0.000    0.003 1044.683 1044.684
 tddfpt_davidson_solver               2  6.0    0.003    0.030 1039.594 1039.596
 tddfpt_compute_Aop_evects           10  7.0    0.000    0.000 1034.323 1034.332
 sccs                                49  8.0   11.846   13.943  955.127  955.467
 pw_transfer                      14731 10.7    2.181    2.394  856.538  866.026
 fft_wrap_pw1pw2                  12745 11.9    0.290    0.314  848.832  858.170
 fft_wrap_pw1pw2_250               8985 12.7  178.344  187.324  820.496  827.416
 fhxc_kernel                         10  8.0    0.016    0.029  743.109  743.115
 fft3d_ps                         12745 13.9  302.951  308.472  556.845  576.529
 ps_wavelet_solve                  1342 10.2  318.408  374.144  508.112  521.927
 tddfpt_apply_hfx                    10  8.0    0.007    0.012  289.903  289.910
 mp_alltoall_d54                   1342 11.2  137.948  287.561  137.948  287.561
 integrate_four_center              649  9.9   29.601   30.419  281.345  281.462
 tddft_hfx_matrix                   600  9.0    0.008    0.010  254.991  255.117
 tddfpt_apply_xc_analytic           300  9.0    1.502    1.609  249.721  250.454
 integrate_four_center_main         649 10.9    0.611    1.560  229.573  236.279
 integrate_four_center_bin        47588 11.9  228.962  235.349  228.962  235.349
 tddfpt_apply_coulomb               300  9.0    0.006    0.007  228.088  228.562
 xc_pw_derive                      2097 11.0    0.048    0.052  224.563  226.611
 mp_alltoall_z22v                 12745 15.9  168.763  203.378  168.763  203.378
 calculate_rho_elec                 401  9.4    0.810    0.829  197.425  197.484
 x_to_yz                           6450 14.5   55.332   57.109  161.623  184.727
 qs_rho_update_rho_low              351  8.4    0.002    0.003  173.298  173.361
 xc_pw_divergence                   349 10.9    0.026    0.029  149.281  151.708
 density_rs2pw                      401 10.4    0.035    0.038  146.305  150.456
 xc_calc_2nd_deriv_analytical       300 10.0   12.639   13.135  146.562  146.875
 integrate_v_rspace                 349  9.0    0.016    0.016  121.122  122.808
 rs_pw_transfer                    4695 11.2    0.077    0.084  111.266  115.279
 potential_pw2rs                    349 10.0    0.130    0.158   99.550  101.260
 mp_alltoall_d11v                 26024 11.7   49.903   98.901   49.903   98.901
 yz_to_x                           4039 15.3   22.602   23.669   84.229   95.366
 pw_scatter_p                      7497 13.5   65.014   67.700   65.014   67.700
 grid_collocate_task_list           401 10.4   47.479   64.736   47.479   64.736
 pw_derive                         5211 10.8   58.602   61.246   58.602   61.246
 mp_alltoall_d45                   1343 11.2   48.132   57.568   48.132   57.568
 mp_waitany                       60732 13.2   50.878   54.530   50.878   54.530
 pw_gather_p                       5248 14.3   46.120   49.432   46.120   49.432
 -------------------------------------------------------------------------------

 The number of warnings for this run is : 1
 
 -------------------------------------------------------------------------------
  **** **** ******  **  PROGRAM ENDED AT                 2024-03-17 09:26:49.079
 ***** ** ***  *** **   PROGRAM RAN ON                              777554adc726
 **    ****   ******    PROGRAM RAN BY                                 <unknown>
 ***** **    ** ** **   PROGRAM PROCESS ID                                   538
  **** **  *******  **  PROGRAM STOPPED IN                                  /mnt
