 DBCSR| CPU Multiplication driver                                           XSMM (U)
 DBCSR| Multrec recursion limit                                              512 (U)
 DBCSR| Multiplication stack size                                           1000 (D)
 DBCSR| Maximum elements for images                                    UNLIMITED (U)
 DBCSR| Multiplicative factor virtual images                                   1 (U)
 DBCSR| Use multiplication densification                                       T (D)
 DBCSR| Multiplication size stacks                                             3 (U)
 DBCSR| Use memory pool for CPU allocation                                     F (U)
 DBCSR| Number of 3D layers                                               SINGLE (U)
 DBCSR| Use MPI memory allocation                                              F (U)
 DBCSR| Use RMA algorithm                                                      F (U)
 DBCSR| Use Communication thread                                               T (U)
 DBCSR| Communication thread load                                             83 (D)
 DBCSR| MPI: My process id                                                     0
 DBCSR| MPI: Number of processes                                              90
 DBCSR| OMP: Current number of threads                                         2
 DBCSR| OMP: Max number of threads                                             2
 DBCSR| Split modifier for TAS multiplication algorithm                  1.0E+00 (U)


  **** **** ******  **  PROGRAM STARTED AT               2024-03-17 09:29:21.887
 ***** ** ***  *** **   PROGRAM STARTED ON                          700cafa5ddcf
 **    ****   ******    PROGRAM STARTED BY                             <unknown>
 ***** **    ** ** **   PROGRAM PROCESS ID                                   538
  **** **  *******  **  PROGRAM STARTED IN                                  /mnt

 CP2K| version string:                                       CP2K version 2023.2
 CP2K| source code revision number:                                  git:65cca6c
 CP2K| cp2kflags: omp libint fftw3 libxc pexsi elpa parallel scalapack cosma qui
 CP2K|            p xsmm plumed2 spglib sirius libvori libbqb libtorch libvdwxc
 CP2K| is freely available from                            https://www.cp2k.org/
 CP2K| Program compiled at                          Wed Oct 18 11:40:41 UTC 2023
 CP2K| Program compiled on                                          633bb7bf566f
 CP2K| Program compiled for                                                local
 CP2K| Data directory path                                        /opt/cp2k/data
 CP2K| Input file name                                   4amp33isopbe_solvent.in

 GLOBAL| Force Environment number                                              1
 GLOBAL| Basis set file name                                      GTH_BASIS_SETS
 GLOBAL| Potential file name                                           POTENTIAL
 GLOBAL| MM Potential file name                                     MM_POTENTIAL
 GLOBAL| Coordinate file name                                      __STD_INPUT__
 GLOBAL| Method name                                                        CP2K
 GLOBAL| Project name                                        4amp33isopbesolvent
 GLOBAL| Run type                                                         ENERGY
 GLOBAL| FFT library                                                       FFTW3
 GLOBAL| Diagonalization library                                       ScaLAPACK
 GLOBAL| DGEMM library                                                      BLAS
 GLOBAL| Orthonormality check for eigenvectors                          DISABLED
 GLOBAL| Matrix multiplication library                                     COSMA
 GLOBAL| All-to-all communication in single precision                          F
 GLOBAL| FFTs using library dependent lengths                                  F
 GLOBAL| Grid backend                                                       AUTO
 GLOBAL| Global print level                                               MEDIUM
 GLOBAL| MPI I/O enabled                                                       T
 GLOBAL| Total number of message passing processes                            90
 GLOBAL| Number of threads for this process                                    2
 GLOBAL| This output is from process                                           0
 GLOBAL| Stack size for threads created by OpenMP (OMP_STACKSIZE)            16M
 GLOBAL| CPU model name                                            AMD EPYC 9B14
 GLOBAL| CPUID                                                              1003
 GLOBAL| Compiled for CPUID                                                    0

 *** HINT in environment.F:904 :: The compiler target flags (generic) used ***
 *** to build this binary cannot exploit all extensions of this CPU model  ***
 *** (x86_avx512). Consider compiler target flags as part of FCFLAGS and   ***
 *** CFLAGS (ARCH file).                                                   ***


 MEMORY| system memory details [Kb]
 MEMORY|                        rank 0           min           max       average
 MEMORY| MemTotal            365023368     365023368     365023368     365023368
 MEMORY| MemFree             345937320     345937320     345937320     345937320
 MEMORY| Buffers                 33656         33656         33656         33656
 MEMORY| Cached                6077348       6077348       6077348       6077348
 MEMORY| Slab                   687700        687700        687700        687700
 MEMORY| SReclaimable           254016        254016        254016        254016
 MEMORY| MemLikelyFree       352302340     352302340     352302340     352302340


 *** Fundamental physical constants (SI units) ***

 *** Literature: B. J. Mohr and B. N. Taylor,
 ***             CODATA recommended values of the fundamental physical
 ***             constants: 2006, Web Version 5.1
 ***             http://physics.nist.gov/constants

 Speed of light in vacuum [m/s]                             2.99792458000000E+08
 Magnetic constant or permeability of vacuum [N/A**2]       1.25663706143592E-06
 Electric constant or permittivity of vacuum [F/m]          8.85418781762039E-12
 Planck constant (h) [J*s]                                  6.62606896000000E-34
 Planck constant (h-bar) [J*s]                              1.05457162825177E-34
 Elementary charge [C]                                      1.60217648700000E-19
 Electron mass [kg]                                         9.10938215000000E-31
 Electron g factor [ ]                                     -2.00231930436220E+00
 Proton mass [kg]                                           1.67262163700000E-27
 Fine-structure constant                                    7.29735253760000E-03
 Rydberg constant [1/m]                                     1.09737315685270E+07
 Avogadro constant [1/mol]                                  6.02214179000000E+23
 Boltzmann constant [J/K]                                   1.38065040000000E-23
 Atomic mass unit [kg]                                      1.66053878200000E-27
 Bohr radius [m]                                            5.29177208590000E-11

 *** Conversion factors ***

 [u] -> [a.u.]                                              1.82288848426455E+03
 [Angstrom] -> [Bohr] = [a.u.]                              1.88972613288564E+00
 [a.u.] = [Bohr] -> [Angstrom]                              5.29177208590000E-01
 [a.u.] -> [s]                                              2.41888432650478E-17
 [a.u.] -> [fs]                                             2.41888432650478E-02
 [a.u.] -> [J]                                              4.35974393937059E-18
 [a.u.] -> [N]                                              8.23872205491840E-08
 [a.u.] -> [K]                                              3.15774647902944E+05
 [a.u.] -> [kJ/mol]                                         2.62549961709828E+03
 [a.u.] -> [kcal/mol]                                       6.27509468713739E+02
 [a.u.] -> [Pa]                                             2.94210107994716E+13
 [a.u.] -> [bar]                                            2.94210107994716E+08
 [a.u.] -> [atm]                                            2.90362800883016E+08
 [a.u.] -> [eV]                                             2.72113838565563E+01
 [a.u.] -> [Hz]                                             6.57968392072181E+15
 [a.u.] -> [1/cm] (wave numbers)                            2.19474631370540E+05
 [a.u./Bohr**2] -> [1/cm]                                   5.14048714338585E+03
 

 CELL_TOP| Volume [angstrom^3]:                                     17576.000000
 CELL_TOP| Vector a [angstrom    26.000     0.000     0.000   |a| =    26.000000
 CELL_TOP| Vector b [angstrom     0.000    26.000     0.000   |b| =    26.000000
 CELL_TOP| Vector c [angstrom     0.000     0.000    26.000   |c| =    26.000000
 CELL_TOP| Angle (b,c), alpha [degree]:                                90.000000
 CELL_TOP| Angle (a,c), beta  [degree]:                                90.000000
 CELL_TOP| Angle (a,b), gamma [degree]:                                90.000000
 CELL_TOP| Numerically orthorhombic:                                         YES
 CELL_TOP| Periodicity                                                      NONE

 GENERATE|  Preliminary Number of Bonds generated:                             0
 GENERATE|  Achieved consistency in connectivity generation.

 CELL| Volume [angstrom^3]:                                         17576.000000
 CELL| Vector a [angstrom]:      26.000     0.000     0.000   |a| =    26.000000
 CELL| Vector b [angstrom]:       0.000    26.000     0.000   |b| =    26.000000
 CELL| Vector c [angstrom]:       0.000     0.000    26.000   |c| =    26.000000
 CELL| Angle (b,c), alpha [degree]:                                    90.000000
 CELL| Angle (a,c), beta  [degree]:                                    90.000000
 CELL| Angle (a,b), gamma [degree]:                                    90.000000
 CELL| Numerically orthorhombic:                                             YES
 CELL| Periodicity                                                          NONE

 CELL_REF| Volume [angstrom^3]:                                     17576.000000
 CELL_REF| Vector a [angstrom    26.000     0.000     0.000   |a| =    26.000000
 CELL_REF| Vector b [angstrom     0.000    26.000     0.000   |b| =    26.000000
 CELL_REF| Vector c [angstrom     0.000     0.000    26.000   |c| =    26.000000
 CELL_REF| Angle (b,c), alpha [degree]:                                90.000000
 CELL_REF| Angle (a,c), beta  [degree]:                                90.000000
 CELL_REF| Angle (a,b), gamma [degree]:                                90.000000
 CELL_REF| Numerically orthorhombic:                                         YES
 CELL_REF| Periodicity                                                      NONE

 *******************************************************************************
 *******************************************************************************
 **                                                                           **
 **     #####                         ##              ##                      **
 **    ##   ##            ##          ##              ##                      **
 **   ##     ##                       ##            ######                    **
 **   ##     ##  ##   ##  ##   #####  ##  ##   ####   ##    #####    #####    **
 **   ##     ##  ##   ##  ##  ##      ## ##   ##      ##   ##   ##  ##   ##   **
 **   ##  ## ##  ##   ##  ##  ##      ####     ###    ##   ######   ######    **
 **    ##  ###   ##   ##  ##  ##      ## ##      ##   ##   ##       ##        **
 **     #######   #####   ##   #####  ##  ##  ####    ##    #####   ##        **
 **           ##                                                    ##        **
 **                                                                           **
 **                                                ... make the atoms dance   **
 **                                                                           **
 **            Copyright (C) by CP2K developers group (2000-2023)             **
 **                      J. Chem. Phys. 152, 194103 (2020)                    **
 **                                                                           **
 *******************************************************************************

 DFT| Spin restricted Kohn-Sham (RKS) calculation                            RKS
 DFT| Multiplicity                                                             1
 DFT| Number of spin states                                                    1
 DFT| Charge                                                                   0
 DFT| Self-interaction correction (SIC)                                       NO
 DFT| Cutoffs: density                                              1.000000E-10
 DFT|          gradient                                             1.000000E-10
 DFT|          tau                                                  1.000000E-10
 DFT|          cutoff_smoothing_range                               0.000000E+00
 DFT| XC density smoothing                                                  NONE
 DFT| XC derivatives                                                          PW

 FUNCTIONAL| PBE:
 FUNCTIONAL| J.P.Perdew, K.Burke, M.Ernzerhof, Phys. Rev. Letter, vol. 77, n 18,
 FUNCTIONAL|  pp. 3865-3868, (1996){spin unpolarized}                           

 SCCS| Self-consistent continuum solvation model
 SCCS| Relative permittivity of the solvent (medium)                3.671000E+01
 SCCS| Absolute permittivity [a.u.]                                 2.921289E+00
 SCCS| Dielectric function proposed by Fattebert and Gygi
 SCCS|  beta                                                        1.700000E+00
 SCCS|  rho_zero                                                    6.000000E-04
 SCCS| Numerical derivative calculation      5-point stencil central differences
 SCCS| Repulsion parameter alpha [mN/m] = [dyn/cm]                  9.880000E+00
 SCCS| Dispersion parameter beta [GPa]                             -5.000000E-01
 SCCS| Surface tension gamma [mN/m] = [dyn/cm]                      3.642000E+01
 SCCS| Mixing parameter applied during the iteration cycle          6.000000E-01
 SCCS| Tolerance for the convergence of the SCCS iteration c        1.000000E-07
 SCCS| Maximum number of iteration steps                                     100
 SCCS| SCF convergence threshold for starting the SCCS itera        1.000000E-02
 SCCS| Numerical increment for the cavity surface calculatio        2.000000E-05

 vdW POTENTIAL|                                                   Pair Potential
 vdW POTENTIAL|          DFT-D3 (Version 3.1)
 vdW POTENTIAL|          Potential Form: S. Grimme et al, JCP 132: 154104 (2010)
 vdW POTENTIAL|          BJ Damping: S. Grimme et al, JCC 32: 1456 (2011)
 vdW POTENTIAL|          Cutoff Radius [Bohr]:                             30.24
 vdW POTENTIAL|          s6 Scaling Factor:                               1.0000
 vdW POTENTIAL|          a1 Damping Factor:                               0.4289
 vdW POTENTIAL|          s8 Scaling Factor:                               0.7875
 vdW POTENTIAL|          a2 Damping Factor:                               4.4407
 vdW POTENTIAL|          Cutoff for CN calculation:                   0.1000E-05

 QS| Method:                                                                 GPW
 QS| Density plane wave grid type                        NON-SPHERICAL FULLSPACE
 QS| Number of grid levels:                                                    6
 QS| Density cutoff [a.u.]:                                                250.0
 QS| Multi grid cutoff [a.u.]: 1) grid level                               250.0
 QS|                           2) grid level                                83.3
 QS|                           3) grid level                                27.8
 QS|                           4) grid level                                 9.3
 QS|                           5) grid level                                 3.1
 QS|                           6) grid level                                 1.0
 QS| Grid level progression factor:                                          3.0
 QS| Relative density cutoff [a.u.]:                                        35.0
 QS| Interaction thresholds: eps_pgf_orb:                                1.0E-05
 QS|                         eps_filter_matrix:                          0.0E+00
 QS|                         eps_core_charge:                            1.0E-12
 QS|                         eps_rho_gspace:                             1.0E-10
 QS|                         eps_rho_rspace:                             1.0E-10
 QS|                         eps_gvg_rspace:                             1.0E-05
 QS|                         eps_ppl:                                    1.0E-02
 QS|                         eps_ppnl:                                   1.0E-07


 ATOMIC KIND INFORMATION

  1. Atomic kind: O                                     Number of atoms:       1

     Orbital Basis Set                                               TZVP-GTH-q6

       Number of orbital shell sets:                                           2
       Number of orbital shells:                                               7
       Number of primitive Cartesian functions:                                6
       Number of Cartesian basis functions:                                   18
       Number of spherical basis functions:                                   17
       Norm type:                                                              2

       Normalised Cartesian orbitals:

                        Set   Shell   Orbital            Exponent    Coefficient

                          1       1    2s               10.267442       0.404544
                                                         3.748050       0.199889
                                                         1.330834      -0.336302
                                                         0.455680      -0.246356
                                                         0.146292      -0.028287

                          1       2    3s               10.267442       0.000000
                                                         3.748050       0.000000
                                                         1.330834       0.000000
                                                         0.455680       0.395280
                                                         0.146292       0.000000

                          1       3    4s               10.267442       0.000000
                                                         3.748050       0.000000
                                                         1.330834       0.000000
                                                         0.455680       0.000000
                                                         0.146292       0.168588

                          1       4    3px              10.267442      -1.561025
                                                         3.748050      -1.394275
                                                         1.330834      -0.754014
                                                         0.455680      -0.224400
                                                         0.146292      -0.029841
                          1       4    3py              10.267442      -1.561025
                                                         3.748050      -1.394275
                                                         1.330834      -0.754014
                                                         0.455680      -0.224400
                                                         0.146292      -0.029841
                          1       4    3pz              10.267442      -1.561025
                                                         3.748050      -1.394275
                                                         1.330834      -0.754014
                                                         0.455680      -0.224400
                                                         0.146292      -0.029841

                          1       5    4px              10.267442       0.000000
                                                         3.748050       0.000000
                                                         1.330834       0.000000
                                                         0.455680       0.533661
                                                         0.146292       0.000000
                          1       5    4py              10.267442       0.000000
                                                         3.748050       0.000000
                                                         1.330834       0.000000
                                                         0.455680       0.533661
                                                         0.146292       0.000000
                          1       5    4pz              10.267442       0.000000
                                                         3.748050       0.000000
                                                         1.330834       0.000000
                                                         0.455680       0.533661
                                                         0.146292       0.000000

                          1       6    5px              10.267442       0.000000
                                                         3.748050       0.000000
                                                         1.330834       0.000000
                                                         0.455680       0.000000
                                                         0.146292       0.128963
                          1       6    5py              10.267442       0.000000
                                                         3.748050       0.000000
                                                         1.330834       0.000000
                                                         0.455680       0.000000
                                                         0.146292       0.128963
                          1       6    5pz              10.267442       0.000000
                                                         3.748050       0.000000
                                                         1.330834       0.000000
                                                         0.455680       0.000000
                                                         0.146292       0.128963

                          2       1    3dx2              1.185000       2.215218
                          2       1    3dxy              1.185000       3.836871
                          2       1    3dxz              1.185000       3.836871
                          2       1    3dy2              1.185000       2.215218
                          2       1    3dyz              1.185000       3.836871
                          2       1    3dz2              1.185000       2.215218

       Atomic covalent radius [Angstrom]:                                  0.730

       Atomic van der Waals radius [Angstrom]:                             1.520

     GTH Potential information for                                       GTH-PBE

       Description:                       Goedecker-Teter-Hutter pseudopotential
                                           Goedecker et al., PRB 54, 1703 (1996)
                                          Hartwigsen et al., PRB 58, 3641 (1998)
                                                      Krack, TCA 114, 145 (2005)

       Gaussian exponent of the core charge distribution:               8.360253
       Electronic configuration (s p d ...):                               2   4

       Parameters of the local part of the GTH pseudopotential:

                          rloc        C1          C2          C3          C4
                        0.244554  -16.667215    2.487311

       Parameters of the non-local part of the GTH pseudopotential:

                   l      r(l)      h(i,j,l)

                   0    0.220956   18.337458
                   1    0.211332

  2. Atomic kind: N                                     Number of atoms:       1

     Orbital Basis Set                                               TZVP-GTH-q5

       Number of orbital shell sets:                                           2
       Number of orbital shells:                                               7
       Number of primitive Cartesian functions:                                6
       Number of Cartesian basis functions:                                   18
       Number of spherical basis functions:                                   17
       Norm type:                                                              2

       Normalised Cartesian orbitals:

                        Set   Shell   Orbital            Exponent    Coefficient

                          1       1    2s                7.622745       0.321703
                                                         2.797061       0.161118
                                                         0.990977      -0.264934
                                                         0.341731      -0.199987
                                                         0.111682      -0.023066

                          1       2    3s                7.622745       0.000000
                                                         2.797061       0.000000
                                                         0.990977       0.000000
                                                         0.341731       0.318547
                                                         0.111682       0.000000

                          1       3    4s                7.622745       0.000000
                                                         2.797061       0.000000
                                                         0.990977       0.000000
                                                         0.341731       0.000000
                                                         0.111682       0.137689

                          1       4    3px               7.622745      -1.014025
                                                         2.797061      -0.927144
                                                         0.990977      -0.514975
                                                         0.341731      -0.158623
                                                         0.111682      -0.021774
                          1       4    3py               7.622745      -1.014025
                                                         2.797061      -0.927144
                                                         0.990977      -0.514975
                                                         0.341731      -0.158623
                                                         0.111682      -0.021774
                          1       4    3pz               7.622745      -1.014025
                                                         2.797061      -0.927144
                                                         0.990977      -0.514975
                                                         0.341731      -0.158623
                                                         0.111682      -0.021774

                          1       5    4px               7.622745       0.000000
                                                         2.797061       0.000000
                                                         0.990977       0.000000
                                                         0.341731       0.372431
                                                         0.111682       0.000000
                          1       5    4py               7.622745       0.000000
                                                         2.797061       0.000000
                                                         0.990977       0.000000
                                                         0.341731       0.372431
                                                         0.111682       0.000000
                          1       5    4pz               7.622745       0.000000
                                                         2.797061       0.000000
                                                         0.990977       0.000000
                                                         0.341731       0.372431
                                                         0.111682       0.000000

                          1       6    5px               7.622745       0.000000
                                                         2.797061       0.000000
                                                         0.990977       0.000000
                                                         0.341731       0.000000
                                                         0.111682       0.092028
                          1       6    5py               7.622745       0.000000
                                                         2.797061       0.000000
                                                         0.990977       0.000000
                                                         0.341731       0.000000
                                                         0.111682       0.092028
                          1       6    5pz               7.622745       0.000000
                                                         2.797061       0.000000
                                                         0.990977       0.000000
                                                         0.341731       0.000000
                                                         0.111682       0.092028

                          2       1    3dx2              0.817000       1.155575
                          2       1    3dxy              0.817000       2.001514
                          2       1    3dxz              0.817000       2.001514
                          2       1    3dy2              0.817000       1.155575
                          2       1    3dyz              0.817000       2.001514
                          2       1    3dz2              0.817000       1.155575

       Atomic covalent radius [Angstrom]:                                  0.750

       Atomic van der Waals radius [Angstrom]:                             1.550

     GTH Potential information for                                       GTH-PBE

       Description:                       Goedecker-Teter-Hutter pseudopotential
                                           Goedecker et al., PRB 54, 1703 (1996)
                                          Hartwigsen et al., PRB 58, 3641 (1998)
                                                      Krack, TCA 114, 145 (2005)

       Gaussian exponent of the core charge distribution:               6.208322
       Electronic configuration (s p d ...):                               2   3

       Parameters of the local part of the GTH pseudopotential:

                          rloc        C1          C2          C3          C4
                        0.283791  -12.415226    1.868096

       Parameters of the non-local part of the GTH pseudopotential:

                   l      r(l)      h(i,j,l)

                   0    0.255405   13.630263
                   1    0.245495

  3. Atomic kind: C                                     Number of atoms:      24

     Orbital Basis Set                                               TZVP-GTH-q4

       Number of orbital shell sets:                                           2
       Number of orbital shells:                                               7
       Number of primitive Cartesian functions:                                6
       Number of Cartesian basis functions:                                   18
       Number of spherical basis functions:                                   17
       Norm type:                                                              2

       Normalised Cartesian orbitals:

                        Set   Shell   Orbital            Exponent    Coefficient

                          1       1    2s                5.368566       0.245056
                                                         1.983069       0.124102
                                                         0.697835      -0.198350
                                                         0.243097      -0.156359
                                                         0.081287      -0.018192

                          1       2    3s                5.368566       0.000000
                                                         1.983069       0.000000
                                                         0.697835       0.000000
                                                         0.243097       0.246743
                                                         0.081287       0.000000

                          1       3    4s                5.368566       0.000000
                                                         1.983069       0.000000
                                                         0.697835       0.000000
                                                         0.243097       0.000000
                                                         0.081287       0.108499

                          1       4    3px               5.368566      -0.595193
                                                         1.983069      -0.567909
                                                         0.697835      -0.325466
                                                         0.243097      -0.105296
                                                         0.081287      -0.015205
                          1       4    3py               5.368566      -0.595193
                                                         1.983069      -0.567909
                                                         0.697835      -0.325466
                                                         0.243097      -0.105296
                                                         0.081287      -0.015205
                          1       4    3pz               5.368566      -0.595193
                                                         1.983069      -0.567909
                                                         0.697835      -0.325466
                                                         0.243097      -0.105296
                                                         0.081287      -0.015205

                          1       5    4px               5.368566       0.000000
                                                         1.983069       0.000000
                                                         0.697835       0.000000
                                                         0.243097       0.243312
                                                         0.081287       0.000000
                          1       5    4py               5.368566       0.000000
                                                         1.983069       0.000000
                                                         0.697835       0.000000
                                                         0.243097       0.243312
                                                         0.081287       0.000000
                          1       5    4pz               5.368566       0.000000
                                                         1.983069       0.000000
                                                         0.697835       0.000000
                                                         0.243097       0.243312
                                                         0.081287       0.000000

                          1       6    5px               5.368566       0.000000
                                                         1.983069       0.000000
                                                         0.697835       0.000000
                                                         0.243097       0.000000
                                                         0.081287       0.061868
                          1       6    5py               5.368566       0.000000
                                                         1.983069       0.000000
                                                         0.697835       0.000000
                                                         0.243097       0.000000
                                                         0.081287       0.061868
                          1       6    5pz               5.368566       0.000000
                                                         1.983069       0.000000
                                                         0.697835       0.000000
                                                         0.243097       0.000000
                                                         0.081287       0.061868

                          2       1    3dx2              0.550000       0.578155
                          2       1    3dxy              0.550000       1.001394
                          2       1    3dxz              0.550000       1.001394
                          2       1    3dy2              0.550000       0.578155
                          2       1    3dyz              0.550000       1.001394
                          2       1    3dz2              0.550000       0.578155

       Atomic covalent radius [Angstrom]:                                  0.770

       Atomic van der Waals radius [Angstrom]:                             1.700

     GTH Potential information for                                       GTH-PBE

       Description:                       Goedecker-Teter-Hutter pseudopotential
                                           Goedecker et al., PRB 54, 1703 (1996)
                                          Hartwigsen et al., PRB 58, 3641 (1998)
                                                      Krack, TCA 114, 145 (2005)

       Gaussian exponent of the core charge distribution:               4.364419
       Electronic configuration (s p d ...):                               2   2

       Parameters of the local part of the GTH pseudopotential:

                          rloc        C1          C2          C3          C4
                        0.338471   -8.803674    1.339211

       Parameters of the non-local part of the GTH pseudopotential:

                   l      r(l)      h(i,j,l)

                   0    0.302576    9.622487
                   1    0.291507

  4. Atomic kind: H                                     Number of atoms:      15

     Orbital Basis Set                                               TZVP-GTH-q1

       Number of orbital shell sets:                                           2
       Number of orbital shells:                                               4
       Number of primitive Cartesian functions:                                6
       Number of Cartesian basis functions:                                    6
       Number of spherical basis functions:                                    6
       Norm type:                                                              2

       Normalised Cartesian orbitals:

                        Set   Shell   Orbital            Exponent    Coefficient

                          1       1    1s               10.882724      -0.071340
                                                         3.096875      -0.104410
                                                         0.987452      -0.135375
                                                         0.345069      -0.133923
                                                         0.149269      -0.073092

                          1       2    2s               10.882724       0.000000
                                                         3.096875       0.000000
                                                         0.987452       0.000000
                                                         0.345069       0.320878
                                                         0.149269       0.000000

                          1       3    3s               10.882724       0.000000
                                                         3.096875       0.000000
                                                         0.987452       0.000000
                                                         0.345069       0.000000
                                                         0.149269       0.171154

                          2       1    2px               0.727000       0.956881
                          2       1    2py               0.727000       0.956881
                          2       1    2pz               0.727000       0.956881

       Atomic covalent radius [Angstrom]:                                  0.320

       Atomic van der Waals radius [Angstrom]:                             1.090

     GTH Potential information for                                       GTH-PBE

       Description:                       Goedecker-Teter-Hutter pseudopotential
                                           Goedecker et al., PRB 54, 1703 (1996)
                                          Hartwigsen et al., PRB 58, 3641 (1998)
                                                      Krack, TCA 114, 145 (2005)

       Gaussian exponent of the core charge distribution:              12.500000
       Electronic configuration (s p d ...):                                   1

       Parameters of the local part of the GTH pseudopotential:

                          rloc        C1          C2          C3          C4
                        0.200000   -4.178900    0.724463

  5. Atomic kind: F                                     Number of atoms:       6

     Orbital Basis Set                                               TZVP-GTH-q7

       Number of orbital shell sets:                                           2
       Number of orbital shells:                                               7
       Number of primitive Cartesian functions:                                6
       Number of Cartesian basis functions:                                   18
       Number of spherical basis functions:                                   17
       Norm type:                                                              2

       Normalised Cartesian orbitals:

                        Set   Shell   Orbital            Exponent    Coefficient

                          1       1    2s               13.162513       0.499791
                                                         4.797202       0.231391
                                                         1.704998      -0.412780
                                                         0.581447      -0.293250
                                                         0.184258      -0.033277

                          1       2    3s               13.162513       0.000000
                                                         4.797202       0.000000
                                                         1.704998       0.000000
                                                         0.581447       0.474562
                                                         0.184258       0.000000

                          1       3    4s               13.162513       0.000000
                                                         4.797202       0.000000
                                                         1.704998       0.000000
                                                         0.581447       0.000000
                                                         0.184258       0.200438

                          1       4    3px              13.162513      -2.230542
                                                         4.797202      -1.972071
                                                         1.704998      -1.037904
                                                         0.581447      -0.300489
                                                         0.184258      -0.039017
                          1       4    3py              13.162513      -2.230542
                                                         4.797202      -1.972071
                                                         1.704998      -1.037904
                                                         0.581447      -0.300489
                                                         0.184258      -0.039017
                          1       4    3pz              13.162513      -2.230542
                                                         4.797202      -1.972071
                                                         1.704998      -1.037904
                                                         0.581447      -0.300489
                                                         0.184258      -0.039017

                          1       5    4px              13.162513       0.000000
                                                         4.797202       0.000000
                                                         1.704998       0.000000
                                                         0.581447       0.723732
                                                         0.184258       0.000000
                          1       5    4py              13.162513       0.000000
                                                         4.797202       0.000000
                                                         1.704998       0.000000
                                                         0.581447       0.723732
                                                         0.184258       0.000000
                          1       5    4pz              13.162513       0.000000
                                                         4.797202       0.000000
                                                         1.704998       0.000000
                                                         0.581447       0.723732
                                                         0.184258       0.000000

                          1       6    5px              13.162513       0.000000
                                                         4.797202       0.000000
                                                         1.704998       0.000000
                                                         0.581447       0.000000
                                                         0.184258       0.172077
                          1       6    5py              13.162513       0.000000
                                                         4.797202       0.000000
                                                         1.704998       0.000000
                                                         0.581447       0.000000
                                                         0.184258       0.172077
                          1       6    5pz              13.162513       0.000000
                                                         4.797202       0.000000
                                                         1.704998       0.000000
                                                         0.581447       0.000000
                                                         0.184258       0.172077

                          2       1    3dx2              1.640000       3.911886
                          2       1    3dxy              1.640000       6.775585
                          2       1    3dxz              1.640000       6.775585
                          2       1    3dy2              1.640000       3.911886
                          2       1    3dyz              1.640000       6.775585
                          2       1    3dz2              1.640000       3.911886

       Atomic covalent radius [Angstrom]:                                  0.720

       Atomic van der Waals radius [Angstrom]:                             1.470

     GTH Potential information for                                       GTH-PBE

       Description:                       Goedecker-Teter-Hutter pseudopotential
                                           Goedecker et al., PRB 54, 1703 (1996)
                                          Hartwigsen et al., PRB 58, 3641 (1998)
                                                      Krack, TCA 114, 145 (2005)

       Gaussian exponent of the core charge distribution:              10.823746
       Electronic configuration (s p d ...):                               2   5

       Parameters of the local part of the GTH pseudopotential:

                          rloc        C1          C2          C3          C4
                        0.214930  -21.573028    3.199776

       Parameters of the non-local part of the GTH pseudopotential:

                   l      r(l)      h(i,j,l)

                   0    0.194684   23.743540
                   1    0.186156


 MOLECULE KIND INFORMATION


 All atoms are their own molecule, skipping detailed information


 TOTAL NUMBERS AND MAXIMUM NUMBERS

  Total number of            - Atomic kinds:                                   5
                             - Atoms:                                         47
                             - Shell sets:                                    94
                             - Shells:                                       284
                             - Primitive Cartesian functions:                282
                             - Cartesian basis functions:                    666
                             - Spherical basis functions:                    634

  Maximum angular momentum of- Orbital basis functions:                        2
                             - Local part of the GTH pseudopotential:          2
                             - Non-local part of the GTH pseudopotential:      0


 MODULE QUICKSTEP: ATOMIC COORDINATES IN ANGSTROM

   Atom Kind Element         X             Y             Z       Z(eff)     Mass
      1    1 O     8     15.579922      9.769612     12.523810   6.0000  15.9994
      2    2 N     7     13.537110     14.848644     15.748597   5.0000  14.0067
      3    3 C     6     11.894758      9.076880      8.876624   4.0000  12.0107
      4    4 H     1     11.497357      9.958531      9.381216   1.0000   1.0079
      5    3 C     6     11.217664      8.563556      7.774943   4.0000  12.0107
      6    4 H     1     10.292646      9.025377      7.430268   1.0000   1.0079
      7    3 C     6     11.722828      7.437645      7.110253   4.0000  12.0107
      8    3 C     6     12.907552      6.830630      7.542320   4.0000  12.0107
      9    4 H     1     13.291827      5.953682      7.021044   1.0000   1.0079
     10    3 C     6     13.578799      7.348703      8.643590   4.0000  12.0107
     11    4 H     1     14.507173      6.885086      8.980457   1.0000   1.0079
     12    3 C     6     13.087032      8.476180      9.334593   4.0000  12.0107
     13    3 C     6     13.850891      8.962653     10.472749   4.0000  12.0107
     14    4 H     1     14.765419      8.407975     10.713134   1.0000   1.0079
     15    3 C     6     13.579248     10.025492     11.261962   4.0000  12.0107
     16    4 H     1     12.700546     10.650685     11.097578   1.0000   1.0079
     17    3 C     6     14.520752     10.392915     12.345655   4.0000  12.0107
     18    3 C     6     14.192031     11.563842     13.204384   4.0000  12.0107
     19    3 C     6     15.250536     12.159566     13.919306   4.0000  12.0107
     20    4 H     1     16.247709     11.734063     13.806706   1.0000   1.0079
     21    3 C     6     15.026793     13.262239     14.726970   4.0000  12.0107
     22    4 H     1     15.841798     13.755178     15.258113   1.0000   1.0079
     23    3 C     6     13.717217     13.753772     14.900030   4.0000  12.0107
     24    3 C     6     12.651476     13.163077     14.192303   4.0000  12.0107
     25    4 H     1     11.646177     13.576339     14.291380   1.0000   1.0079
     26    3 C     6     12.894694     12.089850     13.339162   4.0000  12.0107
     27    4 H     1     12.056554     11.647119     12.798591   1.0000   1.0079
     28    3 C     6     12.564666     14.842176     16.593675   4.0000  12.0107
     29    4 H     1     11.904389     13.963065     16.717070   1.0000   1.0079
     30    3 C     6     12.313190     15.982931     17.469250   4.0000  12.0107
     31    3 C     6     13.100251     17.146027     17.369503   4.0000  12.0107
     32    4 H     1     13.890453     17.176064     16.619364   1.0000   1.0079
     33    3 C     6     12.866030     18.219972     18.216748   4.0000  12.0107
     34    4 H     1     13.469448     19.124759     18.143222   1.0000   1.0079
     35    3 C     6     11.838564     18.139063     19.169509   4.0000  12.0107
     36    3 C     6     11.049996     16.988743     19.281259   4.0000  12.0107
     37    4 H     1     10.256050     16.939728     20.026445   1.0000   1.0079
     38    3 C     6     11.288896     15.913408     18.427748   4.0000  12.0107
     39    4 H     1     10.681991     15.008494     18.502277   1.0000   1.0079
     40    3 C     6     11.046171      6.894898      5.886288   4.0000  12.0107
     41    3 C     6     11.627814     19.280274     20.119761   4.0000  12.0107
     42    5 F     9      9.752291      7.334629      5.755581   7.0000  18.9984
     43    5 F     9     11.707877      7.271971      4.738757   7.0000  18.9984
     44    5 F     9     11.027574      5.518553      5.888504   7.0000  18.9984
     45    5 F     9     10.322693     19.393374     20.519415   7.0000  18.9984
     46    5 F     9     11.981873     20.481447     19.568749   7.0000  18.9984
     47    5 F     9     12.384187     19.124036     21.261243   7.0000  18.9984



 SCF PARAMETERS         Density guess:                                   RESTART
                        --------------------------------------------------------
                        max_scf:                                             128
                        max_scf_history:                                       0
                        max_diis:                                              4
                        --------------------------------------------------------
                        eps_scf:                                        1.00E-05
                        eps_scf_history:                                0.00E+00
                        eps_diis:                                       1.00E-01
                        eps_eigval:                                     1.00E-05
                        --------------------------------------------------------
                        level_shift [a.u.]:                             0.000000
                        added MOs                                        70    0
                        --------------------------------------------------------
                        Mixing method:                            BROYDEN_MIXING
                                                charge density mixing in g-space
                        --------------------------------------------------------
                        No outer SCF

 PW_GRID| Information for grid number                                          1
 PW_GRID| Grid distributed over                                    90 processors
 PW_GRID| Real space group dimensions                                    90    1
 PW_GRID| the grid is blocked:                                                NO
 PW_GRID| Cutoff [a.u.]                                                    250.0
 PW_GRID| spherical cutoff:                                                   NO
 PW_GRID|   Bounds   1           -180     179                Points:         360
 PW_GRID|   Bounds   2           -180     179                Points:         360
 PW_GRID|   Bounds   3           -180     179                Points:         360
 PW_GRID| Volume element (a.u.^3)  0.2542E-02     Volume (a.u.^3)    118608.7286
 PW_GRID| Grid span                                                    FULLSPACE
 PW_GRID|   Distribution                         Average         Max         Min
 PW_GRID|   G-Vectors                           518400.0      518400      518400
 PW_GRID|   G-Rays                                1440.0        1440        1440
 PW_GRID|   Real Space Points                   518400.0      518400      518400

 PW_GRID| Information for grid number                                          2
 PW_GRID| Number of the reference grid                                         1
 PW_GRID| Grid distributed over                                    90 processors
 PW_GRID| Real space group dimensions                                    90    1
 PW_GRID| the grid is blocked:                                                NO
 PW_GRID| Cutoff [a.u.]                                                     83.3
 PW_GRID| spherical cutoff:                                                   NO
 PW_GRID|   Bounds   1           -108     107                Points:         216
 PW_GRID|   Bounds   2           -108     107                Points:         216
 PW_GRID|   Bounds   3           -108     107                Points:         216
 PW_GRID| Volume element (a.u.^3)  0.1177E-01     Volume (a.u.^3)    118608.7286
 PW_GRID| Grid span                                                    FULLSPACE
 PW_GRID|   Distribution                         Average         Max         Min
 PW_GRID|   G-Vectors                           111974.4      112320      111672
 PW_GRID|   G-Rays                                 518.4         520         517
 PW_GRID|   Real Space Points                   111974.4      139968       93312

 PW_GRID| Information for grid number                                          3
 PW_GRID| Number of the reference grid                                         1
 PW_GRID| Grid distributed over                                    90 processors
 PW_GRID| Real space group dimensions                                    90    1
 PW_GRID| the grid is blocked:                                                NO
 PW_GRID| Cutoff [a.u.]                                                     27.8
 PW_GRID| spherical cutoff:                                                   NO
 PW_GRID|   Bounds   1            -60      59                Points:         120
 PW_GRID|   Bounds   2            -60      59                Points:         120
 PW_GRID|   Bounds   3            -60      59                Points:         120
 PW_GRID| Volume element (a.u.^3)  0.6864E-01     Volume (a.u.^3)    118608.7286
 PW_GRID| Grid span                                                    FULLSPACE
 PW_GRID|   Distribution                         Average         Max         Min
 PW_GRID|   G-Vectors                            19200.0       19320       19080
 PW_GRID|   G-Rays                                 160.0         161         159
 PW_GRID|   Real Space Points                    19200.0       28800       14400

 PW_GRID| Information for grid number                                          4
 PW_GRID| Number of the reference grid                                         1
 PW_GRID| Grid distributed over                                    90 processors
 PW_GRID| Real space group dimensions                                     9   10
 PW_GRID| the grid is blocked:                                                NO
 PW_GRID| Cutoff [a.u.]                                                      9.3
 PW_GRID| spherical cutoff:                                                   NO
 PW_GRID|   Bounds   1            -36      35                Points:          72
 PW_GRID|   Bounds   2            -36      35                Points:          72
 PW_GRID|   Bounds   3            -36      35                Points:          72
 PW_GRID| Volume element (a.u.^3)  0.3178         Volume (a.u.^3)    118608.7286
 PW_GRID| Grid span                                                    FULLSPACE
 PW_GRID|   Distribution                         Average         Max         Min
 PW_GRID|   G-Vectors                             4147.2        4320        4032
 PW_GRID|   G-Rays                                  57.6          60          56
 PW_GRID|   Real Space Points                     4147.2        4608        4032

 PW_GRID| Information for grid number                                          5
 PW_GRID| Number of the reference grid                                         1
 PW_GRID| Grid distributed over                                    90 processors
 PW_GRID| Real space group dimensions                                     9   10
 PW_GRID| the grid is blocked:                                                NO
 PW_GRID| Cutoff [a.u.]                                                      3.1
 PW_GRID| spherical cutoff:                                                   NO
 PW_GRID|   Bounds   1            -20      19                Points:          40
 PW_GRID|   Bounds   2            -20      19                Points:          40
 PW_GRID|   Bounds   3            -20      19                Points:          40
 PW_GRID| Volume element (a.u.^3)   1.853         Volume (a.u.^3)    118608.7286
 PW_GRID| Grid span                                                    FULLSPACE
 PW_GRID|   Distribution                         Average         Max         Min
 PW_GRID|   G-Vectors                              711.1         760         640
 PW_GRID|   G-Rays                                  17.8          19          16
 PW_GRID|   Real Space Points                      711.1         800         640

 PW_GRID| Information for grid number                                          6
 PW_GRID| Number of the reference grid                                         1
 PW_GRID| Grid distributed over                                    90 processors
 PW_GRID| Real space group dimensions                                     9   10
 PW_GRID| the grid is blocked:                                                NO
 PW_GRID| Cutoff [a.u.]                                                      1.0
 PW_GRID| spherical cutoff:                                                   NO
 PW_GRID|   Bounds   1            -12      11                Points:          24
 PW_GRID|   Bounds   2            -12      11                Points:          24
 PW_GRID|   Bounds   3            -12      11                Points:          24
 PW_GRID| Volume element (a.u.^3)   8.580         Volume (a.u.^3)    118608.7286
 PW_GRID| Grid span                                                    FULLSPACE
 PW_GRID|   Distribution                         Average         Max         Min
 PW_GRID|   G-Vectors                              153.6         168         120
 PW_GRID|   G-Rays                                   6.4           7           5
 PW_GRID|   Real Space Points                      153.6         216          96

 POISSON| Solver                                                         WAVELET
 POISSON| Wavelet| Scaling function                                           40
 POISSON| Periodicity                                                       NONE

 RS_GRID| Information for grid number                                          1
 RS_GRID|   Bounds   1           -180     179                Points:         360
 RS_GRID|   Bounds   2           -180     179                Points:         360
 RS_GRID|   Bounds   3           -180     179                Points:         360
 RS_GRID| Real space distribution over                                  3 groups
 RS_GRID| Real space distribution along direction                              1
 RS_GRID| Border size                                                         27
 RS_GRID| Real space distribution over                                  5 groups
 RS_GRID| Real space distribution along direction                              2
 RS_GRID| Border size                                                         27
 RS_GRID| Real space distribution over                                  6 groups
 RS_GRID| Real space distribution along direction                              3
 RS_GRID| Border size                                                         27
 RS_GRID|   Distribution                         Average         Max         Min
 RS_GRID|   Planes                                 174.0         174         174
 RS_GRID|   Distribution                         Average         Max         Min
 RS_GRID|   Planes                                 126.0         126         126
 RS_GRID|   Distribution                         Average         Max         Min
 RS_GRID|   Planes                                 114.0         114         114

 RS_GRID| Information for grid number                                          2
 RS_GRID|   Bounds   1           -108     107                Points:         216
 RS_GRID|   Bounds   2           -108     107                Points:         216
 RS_GRID|   Bounds   3           -108     107                Points:         216
 RS_GRID| Real space distribution over                                  3 groups
 RS_GRID| Real space distribution along direction                              1
 RS_GRID| Border size                                                         28
 RS_GRID| Real space distribution over                                  5 groups
 RS_GRID| Real space distribution along direction                              2
 RS_GRID| Border size                                                         28
 RS_GRID| Real space distribution over                                  6 groups
 RS_GRID| Real space distribution along direction                              3
 RS_GRID| Border size                                                         28
 RS_GRID|   Distribution                         Average         Max         Min
 RS_GRID|   Planes                                 128.0         128         128
 RS_GRID|   Distribution                         Average         Max         Min
 RS_GRID|   Planes                                  99.2         100          99
 RS_GRID|   Distribution                         Average         Max         Min
 RS_GRID|   Planes                                  92.0          92          92

 RS_GRID| Information for grid number                                          3
 RS_GRID|   Bounds   1            -60      59                Points:         120
 RS_GRID|   Bounds   2            -60      59                Points:         120
 RS_GRID|   Bounds   3            -60      59                Points:         120
 RS_GRID| Real space fully replicated
 RS_GRID| Group size                                                           1

 RS_GRID| Information for grid number                                          4
 RS_GRID|   Bounds   1            -36      35                Points:          72
 RS_GRID|   Bounds   2            -36      35                Points:          72
 RS_GRID|   Bounds   3            -36      35                Points:          72
 RS_GRID| Real space fully replicated
 RS_GRID| Group size                                                           1

 RS_GRID| Information for grid number                                          5
 RS_GRID|   Bounds   1            -20      19                Points:          40
 RS_GRID|   Bounds   2            -20      19                Points:          40
 RS_GRID|   Bounds   3            -20      19                Points:          40
 RS_GRID| Real space fully replicated
 RS_GRID| Group size                                                           1

 RS_GRID| Information for grid number                                          6
 RS_GRID|   Bounds   1            -12      11                Points:          24
 RS_GRID|   Bounds   2            -12      11                Points:          24
 RS_GRID|   Bounds   3            -12      11                Points:          24
 RS_GRID| Real space fully replicated
 RS_GRID| Group size                                                           1

 Number of electrons:                                                        164
 Number of occupied orbitals:                                                 82
 Number of molecular orbitals:                                               152

 Number of orbital functions:                                                634
 Number of independent orbital functions:                                    634

 Extrapolation method: initial_guess


 SCF WAVEFUNCTION OPTIMIZATION

  Step     Update method      Time    Convergence         Total energy    Change
  ------------------------------------------------------------------------------
     1 NoMix/Diag. 0.40E+00    3.0     0.57584419      -316.8475798946 -3.17E+02
     2 Broy./Diag. 0.40E+00    2.7     0.18374164      -317.3301329433 -4.83E-01
     3 Broy./Diag. 0.40E+00    2.8     0.03424287      -316.7722005361  5.58E-01
     4 Broy./Diag. 0.40E+00    2.7     0.03380241      -316.8638265347 -9.16E-02
     5 Broy./Diag. 0.40E+00    2.8     0.00967194      -316.8356348743  2.82E-02
  SCCS| Total electronic charge density                        -163.999999997997
  SCCS| Total charge density (solute)                            -0.000000007702
  SCCS| Volume of the cell           [bohr^3]                         118608.729
  SCCS|                              [angstrom^3]                      17576.000
  SCCS| Volume of the solute cavity  [bohr^3]                           3685.168
  SCCS|                              [angstrom^3]                        546.086
  SCCS| Surface of the solute cavity [bohr^2]                           1699.169
  SCCS|                              [angstrom^2]                        475.816
  SCCS|
  SCCS|   Step    Average residual    Maximum residual         E(Hartree) [a.u.]
  SCCS|      1          0.00003390          1.12335996          322.307109000659
  SCCS|      2          0.00002900          0.56990975          322.319136188836
  SCCS|      3          0.00001098          0.28751993          322.348437547384
  SCCS|      4          0.00000537          0.14465149          322.367531002571
  SCCS|      5          0.00000302          0.07300858          322.375559674400
  SCCS|      6          0.00000171          0.03707196          322.377562364920
  SCCS|      7          0.00000111          0.01887062          322.378067003964
  SCCS|      8          0.00000069          0.00955683          322.378640043478
  SCCS|      9          0.00000044          0.00479449          322.379204244683
  SCCS|     10          0.00000029          0.00243491          322.379540335639
  SCCS|     11          0.00000019          0.00123606          322.379675526800
  SCCS|     12          0.00000013          0.00062389          322.379718915951
  SCCS|     13          0.00000008          0.00033059          322.379733060078
  SCCS|     14          0.00000006          0.00016650          322.379736784087
  SCCS|     15          0.00000004          0.00008204          322.379737114556
  SCCS|     16          0.00000003          0.00004458          322.379738885872
  SCCS|     17          0.00000002          0.00002289          322.379742766693
  SCCS|     18          0.00000001          0.00001132          322.379746375789
  SCCS|     19          7.8130E-09          6.2513E-06          322.379747922500
  SCCS|     20          5.2690E-09          3.6338E-06          322.379747686687
  SCCS|     21          3.5576E-09          2.3318E-06          322.379746933434
  SCCS|     22          2.5075E-09          1.4952E-06          322.379746527245
  SCCS|     23          1.7500E-09          8.9075E-07          322.379746572197
  SCCS|     24          1.1880E-09          6.8398E-07          322.379746795611
  SCCS|     25          8.4057E-10          4.8732E-07          322.379746961199
  SCCS|     26          6.1057E-10          3.1932E-07          322.379747003889
  SCCS|     27          4.2359E-10          2.2259E-07          322.379746969492
  SCCS|     28          2.9536E-10          1.8541E-07          322.379746922183
  SCCS|     29          2.2087E-10          1.1163E-07          322.379746897103
  SCCS|     30          1.5971E-10          7.7500E-08          322.379746897237
  SCCS| Iteration cycle converged in 30 steps
  SCCS|
  SCCS| Polarisation charge                                      -0.000226576285
  SCCS|
  SCCS| Hartree energy of solute and solvent [Hartree]        322.37974690947721
  SCCS| Hartree energy of the solute only    [Hartree]        322.38146486728868
  SCCS| Polarisation energy                  [Hartree]         -0.00171795781153
  SCCS|                                      [kcal/mol]                   -1.078
  SCCS| Cavitation energy                    [Hartree]          0.03974823733249
  SCCS|                                      [kcal/mol]                   24.942
  SCCS| Dispersion free energy               [Hartree]         -0.06262816754476
  SCCS|                                      [kcal/mol]                  -39.300
  SCCS| Repulsion free energy                [Hartree]          0.01078288261518
  SCCS|                                      [kcal/mol]                    6.766
  SCCS| Solvation free energy                [Hartree]         -0.01381500540862
  SCCS|                                      [kcal/mol]                   -8.669
     6 Broy./Diag. 0.40E+00   31.7     0.40288958      -316.8540534498 -1.84E-02
  SCCS| Total electronic charge density                        -163.999999997998
  SCCS| Total charge density (solute)                            -0.000000007703
  SCCS| Volume of the cell           [bohr^3]                         118608.729
  SCCS|                              [angstrom^3]                      17576.000
  SCCS| Volume of the solute cavity  [bohr^3]                           3684.788
  SCCS|                              [angstrom^3]                        546.029
  SCCS| Surface of the solute cavity [bohr^2]                           1699.016
  SCCS|                              [angstrom^2]                        475.773
  SCCS|
  SCCS|   Step    Average residual    Maximum residual         E(Hartree) [a.u.]
  SCCS|      1          0.00000027          0.01947279          322.374204864763
  SCCS|      2          0.00000017          0.00992881          322.374309884239
  SCCS|      3          0.00000011          0.00503791          322.374654587149
  SCCS|      4          0.00000007          0.00254871          322.374928316817
  SCCS|      5          0.00000005          0.00129250          322.375048792466
  SCCS|      6          0.00000003          0.00065939          322.375073346826
  SCCS|      7          0.00000002          0.00033712          322.375073806951
  SCCS|      8          0.00000001          0.00017216          322.375079603136
  SCCS|      9          8.9414E-09          8.5866E-05          322.375089775297
  SCCS|     10          6.1348E-09          4.4160E-05          322.375097650709
  SCCS|     11          4.2386E-09          2.2400E-05          322.375101112194
  SCCS|     12          2.8957E-09          1.1562E-05          322.375101629555
  SCCS|     13          1.9879E-09          6.1298E-06          322.375101175609
  SCCS|     14          1.3606E-09          3.0899E-06          322.375100837698
  SCCS|     15          9.6027E-10          1.5290E-06          322.375100853297
  SCCS|     16          6.6945E-10          8.8809E-07          322.375101059607
  SCCS|     17          4.5301E-10          4.6322E-07          322.375101250732
  SCCS|     18          3.2435E-10          2.1752E-07          322.375101333761
  SCCS|     19          2.3341E-10          1.5051E-07          322.375101326877
  SCCS|     20          1.5955E-10          9.0178E-08          322.375101289599
  SCCS| Iteration cycle converged in 20 steps
  SCCS|
  SCCS| Polarisation charge                                      -0.000234537008
  SCCS|
  SCCS| Hartree energy of solute and solvent [Hartree]        322.37510126447074
  SCCS| Hartree energy of the solute only    [Hartree]        322.37643007855775
  SCCS| Polarisation energy                  [Hartree]         -0.00132881408697
  SCCS|                                      [kcal/mol]                   -0.834
  SCCS| Cavitation energy                    [Hartree]          0.03974465953146
  SCCS|                                      [kcal/mol]                   24.940
  SCCS| Dispersion free energy               [Hartree]         -0.06262170267096
  SCCS|                                      [kcal/mol]                  -39.296
  SCCS| Repulsion free energy                [Hartree]          0.01078191203105
  SCCS|                                      [kcal/mol]                    6.766
  SCCS| Solvation free energy                [Hartree]         -0.01342394519542
  SCCS|                                      [kcal/mol]                   -8.424
     7 Broy./Diag. 0.40E+00   21.9     0.00256741      -316.3720644830  4.82E-01
  SCCS| Total electronic charge density                        -163.999999998002
  SCCS| Total charge density (solute)                            -0.000000007707
  SCCS| Volume of the cell           [bohr^3]                         118608.729
  SCCS|                              [angstrom^3]                      17576.000
  SCCS| Volume of the solute cavity  [bohr^3]                           3683.023
  SCCS|                              [angstrom^3]                        545.768
  SCCS| Surface of the solute cavity [bohr^2]                           1698.290
  SCCS|                              [angstrom^2]                        475.570
  SCCS|
  SCCS|   Step    Average residual    Maximum residual         E(Hartree) [a.u.]
  SCCS|      1          0.00000144          0.18889785          322.347274249436
  SCCS|      2          0.00000091          0.09944209          322.350239732689
  SCCS|      3          0.00000059          0.05215957          322.353587036359
  SCCS|      4          0.00000036          0.02730826          322.355961825918
  SCCS|      5          0.00000025          0.01432113          322.357112435104
  SCCS|      6          0.00000015          0.00753675          322.357507515142
  SCCS|      7          0.00000011          0.00396996          322.357648258094
  SCCS|      8          0.00000007          0.00208218          322.357756659077
  SCCS|      9          0.00000005          0.00108541          322.357856238850
  SCCS|     10          0.00000003          0.00057207          322.357924020901
  SCCS|     11          0.00000002          0.00030067          322.357956200489
  SCCS|     12          0.00000002          0.00015930          322.357965885410
  SCCS|     13          0.00000001          0.00008529          322.357966943878
  SCCS|     14          7.1858E-09          4.4673E-05          322.357966965101
  SCCS|     15          5.0749E-09          2.3062E-05          322.357968062154
  SCCS|     16          3.5477E-09          1.2768E-05          322.357969753498
  SCCS|     17          2.4011E-09          6.8061E-06          322.357971122669
  SCCS|     18          1.7172E-09          3.3914E-06          322.357971764884
  SCCS|     19          1.2393E-09          2.0520E-06          322.357971830204
  SCCS|     20          8.4885E-10          1.1693E-06          322.357971674721
  SCCS|     21          6.0089E-10          5.5255E-07          322.357971555176
  SCCS|     22          4.4835E-10          3.4314E-07          322.357971542576
[...]

 ENERGY| Total FORCE_EVAL ( QS ) energy [a.u.]:             -316.825566368148372

 -------------------------------------------------------------------------------
 -                                                                             -
 -                                DBCSR STATISTICS                             -
 -                                                                             -
 -------------------------------------------------------------------------------
 COUNTER                                    TOTAL       BLAS       SMM       ACC
 flops     6 x     8 x     6               169344       0.0%    100.0%      0.0%
 flops    17 x     8 x     6              1080384       0.0%    100.0%      0.0%
 flops     6 x     8 x    17              1080384       0.0%    100.0%      0.0%
 flops     6 x     6 x    24              4339008       0.0%    100.0%      0.0%
 flops    17 x     8 x    17              6862016       0.0%    100.0%      0.0%
 flops    17 x     6 x    24             24587712       0.0%    100.0%      0.0%
 flops     6 x    17 x    24             25650144       0.0%    100.0%      0.0%
 flops     6 x     6 x    18            136468800       0.0%    100.0%      0.0%
 flops    17 x    17 x    24            166422384       0.0%    100.0%      0.0%
 flops     6 x     6 x    32            508363776       0.0%    100.0%      0.0%
 flops     6 x    18 x     6            524670048       0.0%    100.0%      0.0%
 flops    17 x     6 x    18            773323200       0.0%    100.0%      0.0%
 flops     6 x    17 x    18            806738400       0.0%    100.0%      0.0%
 flops     6 x    32 x     6           1878024960       0.0%    100.0%      0.0%
 flops    17 x     6 x    32           2880728064       0.0%    100.0%      0.0%
 flops     6 x    17 x    32           3005203968       0.0%    100.0%      0.0%
 flops    17 x    18 x     6           3347299728       0.0%    100.0%      0.0%
 flops     6 x    18 x    17           3347299728       0.0%    100.0%      0.0%
 flops    17 x    17 x    18           5234252400       0.0%    100.0%      0.0%
 flops    17 x    32 x     6          11981458560       0.0%    100.0%      0.0%
 flops     6 x    32 x    17          11981458560       0.0%    100.0%      0.0%
 flops    17 x    17 x    32          19498261248       0.0%    100.0%      0.0%
 flops    17 x    18 x    17          21260241072       0.0%    100.0%      0.0%
 flops    17 x    32 x    17          76099757440       0.0%    100.0%      0.0%
 flops inhomo. stacks                           0       0.0%      0.0%      0.0%
 flops total                       163.493741E+09       0.0%    100.0%      0.0%
 flops max/rank                     10.263715E+09       0.0%    100.0%      0.0%
 matmuls inhomo. stacks                         0       0.0%      0.0%      0.0%
 matmuls total                           16114796       0.0%    100.0%      0.0%
 number of processed stacks               6244984       0.0%    100.0%      0.0%
 average stack size                                     0.0       2.6       0.0
 marketing flops                   270.232584E+09
 -------------------------------------------------------------------------------
 # multiplications                           4088
 max memory usage/rank               1.191768E+09
 # max total images/rank                        5
 # max 3D layers                                1
 # MPI messages exchanged                19499760
 MPI messages size (bytes):
  total size                       105.190654E+09
  min size                           0.000000E+00
  max size                          29.440000E+03
  average size                       5.394459E+03
 MPI breakdown and total messages size (bytes):
             size <=      128            10663125                        0
       128 < size <=     8192             3033497              14720793072
      8192 < size <=    32768             5803138              90462990960
     32768 < size <=   131072                   0                        0
    131072 < size <=  4194304                   0                        0
   4194304 < size <= 16777216                   0                        0
  16777216 < size                               0                        0
 -------------------------------------------------------------------------------

 *** WARNING in dbcsr_mm.F:291 :: Using a non-square number of MPI ranks ***
 *** might lead to poor performance. Used ranks: 90 Suggested: 81 169    ***

 -------------------------------------------------------------------------------
 -                                                                             -
 -                      DBCSR MESSAGE PASSING PERFORMANCE                      -
 -                                                                             -
 -------------------------------------------------------------------------------
 ROUTINE             CALLS      AVE VOLUME [Bytes]
 MP_Bcast               25                     12.
 MP_Allreduce        15053                      8.
 MP_Alltoall         75646                  26686.
 MP_ISend           466032                   3327.
 MP_IRecv           468694                   2952.
 -------------------------------------------------------------------------------

 -------------------------------------------------------------------------------
 -                                                                             -
 -                                DBM STATISTICS                               -
 -                                                                             -
 -------------------------------------------------------------------------------
    M  x    N  x    K                                          COUNT     PERCENT
 -------------------------------------------------------------------------------

 -------------------------------------------------------------------------------
 -                                                                             -
 -                                GRID STATISTICS                              -
 -                                                                             -
 -------------------------------------------------------------------------------
 LP    KERNEL             BACKEND                              COUNT     PERCENT
 2     collocate ortho    CPU                                4497172      23.43%
 2     integrate ortho    CPU                                4483920      23.36%
 1     collocate ortho    CPU                                2817010      14.68%
 1     integrate ortho    CPU                                2808400      14.63%
 3     collocate ortho    CPU                                1493580       7.78%
 3     integrate ortho    CPU                                1489200       7.76%
 0     collocate ortho    CPU                                 660326       3.44%
 0     integrate ortho    CPU                                 658240       3.43%
 4     collocate ortho    CPU                                 136400       0.71%
 4     integrate ortho    CPU                                 136000       0.71%
 0     collocate general  CPU                                   8460       0.04%
 0     integrate general  CPU                                   4230       0.02%
 -------------------------------------------------------------------------------

 MEMORY| Estimated peak process memory [MiB]                                1139

 -------------------------------------------------------------------------------
 ----                             MULTIGRID INFO                            ----
 -------------------------------------------------------------------------------
 count for grid        1:        6587598          cutoff [a.u.]          250.00
 count for grid        2:        2655198          cutoff [a.u.]           83.33
 count for grid        3:        1256060          cutoff [a.u.]           27.78
 count for grid        4:         218028          cutoff [a.u.]            9.26
 count for grid        5:           7560          cutoff [a.u.]            3.09
 count for grid        6:              0          cutoff [a.u.]            1.03
 total gridlevel count  :       10724444

 -------------------------------------------------------------------------------
 -                                                                             -
 -                         MESSAGE PASSING PERFORMANCE                         -
 -                                                                             -
 -------------------------------------------------------------------------------

 ROUTINE             CALLS      AVE VOLUME [Bytes]
 MP_Group                6
 MP_Bcast              415                2110975.
 MP_Allreduce       221430                     43.
 MP_Sync              2903
 MP_Alltoall         27029               16814951.
 MP_SendRecv        243860                  68748.
 MP_ISendRecv       242080                  68848.
 MP_Wait            362868
 MP_comm_split         144
 MP_ISend           147636                 274698.
 MP_IRecv           152404                 266100.
 MP_Write_All            2                6825600.
 -------------------------------------------------------------------------------


 -------------------------------------------------------------------------------
 -                                                                             -
 -                           R E F E R E N C E S                               -
 -                                                                             -
 -------------------------------------------------------------------------------
 
 CP2K version 2023.2, the CP2K developers group (2023).
 CP2K is freely available from https://www.cp2k.org/ .

 Kuehne,Thomas D.; Iannuzzi,Marcella; Del Ben,Mauro;
 Rybkin,Vladimir V.; Seewald,Patrick; Stein,Frederick; Laino,Teodoro;
 Khaliullin,Rustam Z.; Schuett,Ole; Schiffmann,Florian; Golze,Dorothea;
 Wilhelm,Jan; Chulkov,Sergey; Bani-Hashemian,Mohammad Hossein;
 Weber,Valery; Borstnik,Urban; Taillefumier,Mathieu;
 Jakobovits,Alice Shoshana; Lazzaro,Alfio; Pabst,Hans; Mueller,Tiziano;
 Schade,Robert; Guidon,Manuel; Andermatt,Samuel; Holmberg,Nico;
 Schenter,Gregory K.; Hehn,Anna; Bussy,Augustin; Belleflamme,Fabian;
 Tabacchi,Gloria; Gloess,Andreas; Lass,Michael; Bethune,Iain;
 Mundy,Christopher J.; Plessl,Christian; Watkins,Matt;
 VandeVondele,Joost; Krack,Matthias; Hutter,Juerg. 
 The Journal of Chemical Physics, 152 (19), (2020). 
 CP2K: An electronic structure and molecular dynamics software package -
 Quickstep: Efficient and accurate electronic structure calculations.
 https://doi.org/10.1063/5.0007045

 Yin, Wen-Jin; Krack, Matthias; Li, Xibo; Chen, Li-Zhen; Liu, Li-Min. 
 Prog. Nat. Sci., 27 (2), 283-288 (2017). 
 Periodic continuum solvation model integrated with first-principles
 calculations for solid surfaces.
 https://doi.org/10.1016/j.pnsc.2017.03.003

 Goerigk, Lars; Hansen, Andreas; Bauer, Christoph; Ehrlich, Stephan;
 Najibi, Asim; Grimme, Stefan. , 19 (48), (2017). 
 A look at the density functional theory zoo with the advanced GMTKN55 database
 for general main group thermochemistry, kinetics and noncovalent interactions.
 https://doi.org/10.1039/C7CP04913G

 Schuett, Ole; Messmer, Peter; Hutter, Juerg; VandeVondele, Joost. 
 Electronic Structure Calculations on Graphics Processing Units, John
 Wiley & Sons, Ltd, 173-190 (2016). 
 GPU-Accelerated Sparse Matrix-Matrix Multiplication for
 Linear Scaling Density Functional Theory.
 https://doi.org/10.1002/9781118670712.ch8

 Heinecke, A; Henry, G; Hutchinson, M; Pabst, H. 
 Proceedings of Intl. Supercomputing Conference, 981-991 (2016). 
 LIBXSMM: Accelerating Small Matrix Multiplications
 by Runtime Code Generation.
 https://doi.org/10.1109/SC.2016.83

 Borstnik, U; VandeVondele, J; Weber, V; Hutter, J. 
 PARALLEL COMPUTING, 40 (5-6), 47-58 (2014). 
 Sparse matrix multiplication: The distributed block-compressed sparse
 row library.
 https://doi.org/10.1016/j.parco.2014.03.012

 Hutter, J; Iannuzzi, M; Schiffmann, F; VandeVondele, J. 
 WIREs Comput Mol Sci., 4 (1), 15-25 (2014). 
 CP2K: atomistic simulations of condensed matter systems.
 https://doi.org/10.1002/wcms.1159

 Grimme, S; Ehrlich, S; Goerigk, L. 
 JOURNAL OF COMPUTATIONAL CHEMISTRY, 32, 1456 (2011). 
 Effect of the damping function in dispersion corrected density functional theory.
 https://doi.org/10.1002/jcc.21759

 Grimme, S; Antony, J; Ehrlich, S; Krieg, H. 
 JOURNAL OF CHEMICAL PHYSICS, 132 (15), 154104 (2010). 
 A consistent and accurate ab initio parametrization of density
 functional dispersion correction (DFT-D) for the 94 elements H-Pu.
 https://doi.org/10.1063/1.3382344

 Genovese, L; Deutsch, T; Goedecker, S. 
 JOURNAL OF CHEMICAL PHYSICS, 127 (5), 054704 (2007). 
 Efficient and accurate three-dimensional Poisson solver for surface
 problems.
 https://doi.org/10.1063/1.2754685

 Genovese, L; Deutsch, T; Neelov, A; Goedecker, S; Beylkin, G. 
 JOURNAL OF CHEMICAL PHYSICS, 125 (7), 074105 (2006). 
 Efficient solution of Poisson's equation with free boundary conditions.
 https://doi.org/10.1063/1.2335442

 Krack, M. 
 THEORETICAL CHEMISTRY ACCOUNTS, 114 (1-3), 145-152 (2005). 
 Pseudopotentials for H to Kr optimized for gradient-corrected
 exchange-correlation functionals.
 https://doi.org/10.1007/s00214-005-0655-y

 VandeVondele, J; Krack, M; Mohamed, F; Parrinello, M; Chassaing, T;
 Hutter, J. COMPUTER PHYSICS COMMUNICATIONS, 167 (2), 103-128 (2005). 
 QUICKSTEP: Fast and accurate density functional calculations using a
 mixed Gaussian and plane waves approach.
 https://doi.org/10.1016/j.cpc.2004.12.014

 Frigo, M; Johnson, SG. 
 PROCEEDINGS OF THE IEEE, 93 (2), 216-231 (2005). 
 The design and implementation of FFTW3.
 https://doi.org/10.1109/JPROC.2004.840301

 Iannuzzi, M; Chassaing, T; Wallman, T; Hutter, J. 
 CHIMIA, 59 (7-8), 499-503 (2005). 
 Ground and excited state density functional calculations with the
 Gaussian and augmented-plane-wave method.
 https://doi.org/10.2533/000942905777676164

 Martin,Richard L.. 
 The Journal of Chemical Physics, 118 (11), 4775-4777 (2003). 
 Natural transition orbitals.
 https://doi.org/10.1063/1.1558471

 Fattebert, JL; Gygi, F. J. Comput. Chem., 23 (6), (2002). 
 Density functional theory for efficient ab initio molecular dynamics
 simulations in solution.
 https://doi.org/10.1002/jcc.10069

 Hartwigsen, C; Goedecker, S; Hutter, J. 
 PHYSICAL REVIEW B, 58 (7), 3641-3662 (1998). 
 Relativistic separable dual-space Gaussian pseudopotentials from H to Rn.
 https://doi.org/10.1103/PhysRevB.58.3641

 Lippert, G; Hutter, J; Parrinello, M. 
 MOLECULAR PHYSICS, 92 (3), 477-487 (1997). 
 A hybrid Gaussian and plane wave density functional scheme.
 https://doi.org/10.1080/002689797170220

 Perdew, JP; Burke, K; Ernzerhof, M. 
 PHYSICAL REVIEW LETTERS, 77 (18), 3865-3868 (1996). 
 Generalized gradient approximation made simple.
 https://doi.org/10.1103/PhysRevLett.77.3865

 Goedecker, S; Teter, M; Hutter, J. 
 PHYSICAL REVIEW B, 54 (3), 1703-1710 (1996). 
 Separable dual-space Gaussian pseudopotentials.
 https://doi.org/10.1103/PhysRevB.54.1703


 -------------------------------------------------------------------------------
 -                                                                             -
 -                                T I M I N G                                  -
 -                                                                             -
 -------------------------------------------------------------------------------
 SUBROUTINE                       CALLS  ASD         SELF TIME        TOTAL TIME
                                MAXIMUM       AVERAGE  MAXIMUM  AVERAGE  MAXIMUM
 CP2K                                 1  1.0    0.108    0.140 2207.107 2207.110
 qs_energies                          1  2.0    0.000    0.006 2206.211 2206.214
 qs_energies_properties               1  3.0    0.000    0.000 1609.157 1609.160
 tddfpt                               1  4.0    0.000    0.000 1609.157 1609.160
 tddfpt_energies                      1  5.0    0.000    0.004 1608.871 1608.874
 tddfpt_davidson_solver               2  6.0    0.005    0.074 1602.083 1602.085
 tddfpt_compute_Aop_evects           13  7.0    0.000    0.000 1588.259 1588.262
 fhxc_kernel                         13  8.0    0.034    0.044 1585.442 1585.451
 pw_transfer                      19117 11.2    2.708    2.996 1083.089 1094.957
 fft_wrap_pw1pw2                  18037 12.3    0.367    0.402 1077.351 1089.032
 fft_wrap_pw1pw2_250              11217 13.2  224.427  231.725 1029.662 1037.012
 pw_poisson_solve                  1220  9.5   43.000   63.517  928.200  930.593
 fft3d_ps                         18037 14.3  384.408  391.850  706.241  728.781
 scf_env_do_scf                       1  3.0    0.000    0.000  591.337  591.338
 scf_env_do_scf_inner_loop           30  4.0    0.001    0.007  591.337  591.338
 qs_ks_update_qs_env                 30  5.0    0.000    0.000  563.425  563.492
 rebuild_ks_matrix                   30  6.0    0.000    0.000  563.423  563.490
 qs_ks_build_kohn_sham_matrix        30  7.0    0.005    0.006  563.423  563.490
 tddfpt_apply_xc_analytic           650  9.0    3.249    3.465  539.989  541.452
 sccs                                30  8.0    6.468    7.498  524.066  524.239
 tddfpt_apply_coulomb               650  9.0    0.014    0.015  498.708  499.457
 ps_wavelet_solve                  1220 10.5  301.752  349.172  477.274  485.398
 xc_pw_derive                      4083 11.0    0.089    0.098  435.918  437.393
 qs_rho_update_rho_low              682  8.8    0.004    0.006  325.865  325.942
 calculate_rho_elec                 682  9.8    1.376    1.407  325.861  325.938
 xc_calc_2nd_deriv_analytical       650 10.0   27.323   27.893  317.063  317.524
 xc_pw_divergence                   680 11.0    0.048    0.057  290.343  292.503
 mp_alltoall_d54                   1220 11.5  127.638  262.580  127.638  262.580
 mp_alltoall_z22v                 18037 16.3  216.033  256.071  216.033  256.071
 density_rs2pw                      682 10.8    0.057    0.063  243.436  249.136
 integrate_v_rspace                 680  9.0    0.028    0.030  216.654  221.185
 x_to_yz                           7901 14.8   62.962   64.539  185.712  207.584
 rs_pw_transfer                    8287 11.4    0.131    0.145  189.192  194.628
 potential_pw2rs                    680 10.0    0.252    0.305  186.168  189.928
 yz_to_x                           6044 15.8   31.738   33.063  123.640  140.522
 grid_collocate_task_list           682 10.8   76.536  104.789   76.536  104.789
 mp_waitany                      101916 13.4   83.269   89.505   83.269   89.505
 pw_scatter_p                      9941 13.9   75.097   78.154   75.097   78.154
 mp_alltoall_d11v                 35152 11.7   50.105   74.692   50.105   74.692
 pw_gather_p                       8096 14.8   67.147   71.638   67.147   71.638
 pw_derive                         5778 11.4   63.382   66.395   63.382   66.395
 rs_pw_transfer_RS2PW_250           761 12.7   13.831   17.042   48.240   56.006
 mp_alltoall_d45                   1221 11.5   44.541   50.377   44.541   50.377
 rs_pw_transfer_PW2RS_250           706 12.0   17.531   18.364   48.859   49.485
 -------------------------------------------------------------------------------

 The number of warnings for this run is : 1
 
 -------------------------------------------------------------------------------
  **** **** ******  **  PROGRAM ENDED AT                 2024-03-17 10:06:10.477
 ***** ** ***  *** **   PROGRAM RAN ON                              700cafa5ddcf
 **    ****   ******    PROGRAM RAN BY                                 <unknown>
 ***** **    ** ** **   PROGRAM PROCESS ID                                   538
  **** **  *******  **  PROGRAM STOPPED IN                                  /mnt
