 DBCSR| CPU Multiplication driver                                           XSMM (U)
 DBCSR| Multrec recursion limit                                              512 (U)
 DBCSR| Multiplication stack size                                           1000 (D)
 DBCSR| Maximum elements for images                                    UNLIMITED (U)
 DBCSR| Multiplicative factor virtual images                                   1 (U)
 DBCSR| Use multiplication densification                                       T (D)
 DBCSR| Multiplication size stacks                                             3 (U)
 DBCSR| Use memory pool for CPU allocation                                     F (U)
 DBCSR| Number of 3D layers                                               SINGLE (U)
 DBCSR| Use MPI memory allocation                                              F (U)
 DBCSR| Use RMA algorithm                                                      F (U)
 DBCSR| Use Communication thread                                               T (U)
 DBCSR| Communication thread load                                             83 (D)
 DBCSR| MPI: My process id                                                     0
 DBCSR| MPI: Number of processes                                              90
 DBCSR| OMP: Current number of threads                                         2
 DBCSR| OMP: Max number of threads                                             2
 DBCSR| Split modifier for TAS multiplication algorithm                  1.0E+00 (U)


  **** **** ******  **  PROGRAM STARTED AT               2024-03-17 07:52:27.081
 ***** ** ***  *** **   PROGRAM STARTED ON                          d3bff0fdf7a9
 **    ****   ******    PROGRAM STARTED BY                             <unknown>
 ***** **    ** ** **   PROGRAM PROCESS ID                                   538
  **** **  *******  **  PROGRAM STARTED IN                                  /mnt

 CP2K| version string:                                       CP2K version 2023.2
 CP2K| source code revision number:                                  git:65cca6c
 CP2K| cp2kflags: omp libint fftw3 libxc pexsi elpa parallel scalapack cosma qui
 CP2K|            p xsmm plumed2 spglib sirius libvori libbqb libtorch libvdwxc
 CP2K| is freely available from                            https://www.cp2k.org/
 CP2K| Program compiled at                          Wed Oct 18 11:40:41 UTC 2023
 CP2K| Program compiled on                                          633bb7bf566f
 CP2K| Program compiled for                                                local
 CP2K| Data directory path                                        /opt/cp2k/data
 CP2K| Input file name                                   4amp15pbeiso_solvent.in

 GLOBAL| Force Environment number                                              1
 GLOBAL| Basis set file name                                      GTH_BASIS_SETS
 GLOBAL| Potential file name                                           POTENTIAL
 GLOBAL| MM Potential file name                                     MM_POTENTIAL
 GLOBAL| Coordinate file name                                      __STD_INPUT__
 GLOBAL| Method name                                                        CP2K
 GLOBAL| Project name                                               4amp15pbeiso
 GLOBAL| Run type                                                         ENERGY
 GLOBAL| FFT library                                                       FFTW3
 GLOBAL| Diagonalization library                                       ScaLAPACK
 GLOBAL| DGEMM library                                                      BLAS
 GLOBAL| Orthonormality check for eigenvectors                          DISABLED
 GLOBAL| Matrix multiplication library                                     COSMA
 GLOBAL| All-to-all communication in single precision                          F
 GLOBAL| FFTs using library dependent lengths                                  F
 GLOBAL| Grid backend                                                       AUTO
 GLOBAL| Global print level                                               MEDIUM
 GLOBAL| MPI I/O enabled                                                       T
 GLOBAL| Total number of message passing processes                            90
 GLOBAL| Number of threads for this process                                    2
 GLOBAL| This output is from process                                           0
 GLOBAL| Stack size for threads created by OpenMP (OMP_STACKSIZE)            16M
 GLOBAL| CPU model name                                            AMD EPYC 9B14
 GLOBAL| CPUID                                                              1003
 GLOBAL| Compiled for CPUID                                                    0

 *** HINT in environment.F:904 :: The compiler target flags (generic) used ***
 *** to build this binary cannot exploit all extensions of this CPU model  ***
 *** (x86_avx512). Consider compiler target flags as part of FCFLAGS and   ***
 *** CFLAGS (ARCH file).                                                   ***


 MEMORY| system memory details [Kb]
 MEMORY|                        rank 0           min           max       average
 MEMORY| MemTotal            365023368     365023368     365023368     365023368
 MEMORY| MemFree             349264184     349264184     349264184     349264184
 MEMORY| Buffers                 26552         26552         26552         26552
 MEMORY| Cached                2899732       2899732       2899732       2899732
 MEMORY| Slab                   540852        540852        540852        540852
 MEMORY| SReclaimable           156220        156220        156220        156220
 MEMORY| MemLikelyFree       352346688     352346688     352346688     352346688


 *** Fundamental physical constants (SI units) ***

 *** Literature: B. J. Mohr and B. N. Taylor,
 ***             CODATA recommended values of the fundamental physical
 ***             constants: 2006, Web Version 5.1
 ***             http://physics.nist.gov/constants

 Speed of light in vacuum [m/s]                             2.99792458000000E+08
 Magnetic constant or permeability of vacuum [N/A**2]       1.25663706143592E-06
 Electric constant or permittivity of vacuum [F/m]          8.85418781762039E-12
 Planck constant (h) [J*s]                                  6.62606896000000E-34
 Planck constant (h-bar) [J*s]                              1.05457162825177E-34
 Elementary charge [C]                                      1.60217648700000E-19
 Electron mass [kg]                                         9.10938215000000E-31
 Electron g factor [ ]                                     -2.00231930436220E+00
 Proton mass [kg]                                           1.67262163700000E-27
 Fine-structure constant                                    7.29735253760000E-03
 Rydberg constant [1/m]                                     1.09737315685270E+07
 Avogadro constant [1/mol]                                  6.02214179000000E+23
 Boltzmann constant [J/K]                                   1.38065040000000E-23
 Atomic mass unit [kg]                                      1.66053878200000E-27
 Bohr radius [m]                                            5.29177208590000E-11

 *** Conversion factors ***

 [u] -> [a.u.]                                              1.82288848426455E+03
 [Angstrom] -> [Bohr] = [a.u.]                              1.88972613288564E+00
 [a.u.] = [Bohr] -> [Angstrom]                              5.29177208590000E-01
 [a.u.] -> [s]                                              2.41888432650478E-17
 [a.u.] -> [fs]                                             2.41888432650478E-02
 [a.u.] -> [J]                                              4.35974393937059E-18
 [a.u.] -> [N]                                              8.23872205491840E-08
 [a.u.] -> [K]                                              3.15774647902944E+05
 [a.u.] -> [kJ/mol]                                         2.62549961709828E+03
 [a.u.] -> [kcal/mol]                                       6.27509468713739E+02
 [a.u.] -> [Pa]                                             2.94210107994716E+13
 [a.u.] -> [bar]                                            2.94210107994716E+08
 [a.u.] -> [atm]                                            2.90362800883016E+08
 [a.u.] -> [eV]                                             2.72113838565563E+01
 [a.u.] -> [Hz]                                             6.57968392072181E+15
 [a.u.] -> [1/cm] (wave numbers)                            2.19474631370540E+05
 [a.u./Bohr**2] -> [1/cm]                                   5.14048714338585E+03
 

 CELL_TOP| Volume [angstrom^3]:                                     27000.000000
 CELL_TOP| Vector a [angstrom    30.000     0.000     0.000   |a| =    30.000000
 CELL_TOP| Vector b [angstrom     0.000    30.000     0.000   |b| =    30.000000
 CELL_TOP| Vector c [angstrom     0.000     0.000    30.000   |c| =    30.000000
 CELL_TOP| Angle (b,c), alpha [degree]:                                90.000000
 CELL_TOP| Angle (a,c), beta  [degree]:                                90.000000
 CELL_TOP| Angle (a,b), gamma [degree]:                                90.000000
 CELL_TOP| Numerically orthorhombic:                                         YES
 CELL_TOP| Periodicity                                                      NONE

 GENERATE|  Preliminary Number of Bonds generated:                             0
 GENERATE|  Achieved consistency in connectivity generation.

 CELL| Volume [angstrom^3]:                                         27000.000000
 CELL| Vector a [angstrom]:      30.000     0.000     0.000   |a| =    30.000000
 CELL| Vector b [angstrom]:       0.000    30.000     0.000   |b| =    30.000000
 CELL| Vector c [angstrom]:       0.000     0.000    30.000   |c| =    30.000000
 CELL| Angle (b,c), alpha [degree]:                                    90.000000
 CELL| Angle (a,c), beta  [degree]:                                    90.000000
 CELL| Angle (a,b), gamma [degree]:                                    90.000000
 CELL| Numerically orthorhombic:                                             YES
 CELL| Periodicity                                                          NONE

 CELL_REF| Volume [angstrom^3]:                                     27000.000000
 CELL_REF| Vector a [angstrom    30.000     0.000     0.000   |a| =    30.000000
 CELL_REF| Vector b [angstrom     0.000    30.000     0.000   |b| =    30.000000
 CELL_REF| Vector c [angstrom     0.000     0.000    30.000   |c| =    30.000000
 CELL_REF| Angle (b,c), alpha [degree]:                                90.000000
 CELL_REF| Angle (a,c), beta  [degree]:                                90.000000
 CELL_REF| Angle (a,b), gamma [degree]:                                90.000000
 CELL_REF| Numerically orthorhombic:                                         YES
 CELL_REF| Periodicity                                                      NONE

 *******************************************************************************
 *******************************************************************************
 **                                                                           **
 **     #####                         ##              ##                      **
 **    ##   ##            ##          ##              ##                      **
 **   ##     ##                       ##            ######                    **
 **   ##     ##  ##   ##  ##   #####  ##  ##   ####   ##    #####    #####    **
 **   ##     ##  ##   ##  ##  ##      ## ##   ##      ##   ##   ##  ##   ##   **
 **   ##  ## ##  ##   ##  ##  ##      ####     ###    ##   ######   ######    **
 **    ##  ###   ##   ##  ##  ##      ## ##      ##   ##   ##       ##        **
 **     #######   #####   ##   #####  ##  ##  ####    ##    #####   ##        **
 **           ##                                                    ##        **
 **                                                                           **
 **                                                ... make the atoms dance   **
 **                                                                           **
 **            Copyright (C) by CP2K developers group (2000-2023)             **
 **                      J. Chem. Phys. 152, 194103 (2020)                    **
 **                                                                           **
 *******************************************************************************

 DFT| Spin restricted Kohn-Sham (RKS) calculation                            RKS
 DFT| Multiplicity                                                             1
 DFT| Number of spin states                                                    1
 DFT| Charge                                                                   0
 DFT| Self-interaction correction (SIC)                                       NO
 DFT| Cutoffs: density                                              1.000000E-10
 DFT|          gradient                                             1.000000E-10
 DFT|          tau                                                  1.000000E-10
 DFT|          cutoff_smoothing_range                               0.000000E+00
 DFT| XC density smoothing                                                  NONE
 DFT| XC derivatives                                                          PW

 FUNCTIONAL| PBE:
 FUNCTIONAL| J.P.Perdew, K.Burke, M.Ernzerhof, Phys. Rev. Letter, vol. 77, n 18,
 FUNCTIONAL|  pp. 3865-3868, (1996){spin unpolarized}                           

 SCCS| Self-consistent continuum solvation model
 SCCS| Relative permittivity of the solvent (medium)                3.671000E+01
 SCCS| Absolute permittivity [a.u.]                                 2.921289E+00
 SCCS| Dielectric function proposed by Fattebert and Gygi
 SCCS|  beta                                                        1.700000E+00
 SCCS|  rho_zero                                                    6.000000E-04
 SCCS| Numerical derivative calculation      5-point stencil central differences
 SCCS| Repulsion parameter alpha [mN/m] = [dyn/cm]                  9.880000E+00
 SCCS| Dispersion parameter beta [GPa]                             -5.000000E-01
 SCCS| Surface tension gamma [mN/m] = [dyn/cm]                      3.642000E+01
 SCCS| Mixing parameter applied during the iteration cycle          6.000000E-01
 SCCS| Tolerance for the convergence of the SCCS iteration c        1.000000E-07
 SCCS| Maximum number of iteration steps                                     100
 SCCS| SCF convergence threshold for starting the SCCS itera        1.000000E-02
 SCCS| Numerical increment for the cavity surface calculatio        2.000000E-05

 vdW POTENTIAL|                                                   Pair Potential
 vdW POTENTIAL|          DFT-D3 (Version 3.1)
 vdW POTENTIAL|          Potential Form: S. Grimme et al, JCP 132: 154104 (2010)
 vdW POTENTIAL|          BJ Damping: S. Grimme et al, JCC 32: 1456 (2011)
 vdW POTENTIAL|          Cutoff Radius [Bohr]:                             30.24
 vdW POTENTIAL|          s6 Scaling Factor:                               1.0000
 vdW POTENTIAL|          a1 Damping Factor:                               0.4289
 vdW POTENTIAL|          s8 Scaling Factor:                               0.7875
 vdW POTENTIAL|          a2 Damping Factor:                               4.4407
 vdW POTENTIAL|          Cutoff for CN calculation:                   0.1000E-05

 QS| Method:                                                                 GPW
 QS| Density plane wave grid type                        NON-SPHERICAL FULLSPACE
 QS| Number of grid levels:                                                    6
 QS| Density cutoff [a.u.]:                                                250.0
 QS| Multi grid cutoff [a.u.]: 1) grid level                               250.0
 QS|                           2) grid level                                83.3
 QS|                           3) grid level                                27.8
 QS|                           4) grid level                                 9.3
 QS|                           5) grid level                                 3.1
 QS|                           6) grid level                                 1.0
 QS| Grid level progression factor:                                          3.0
 QS| Relative density cutoff [a.u.]:                                        35.0
 QS| Interaction thresholds: eps_pgf_orb:                                1.0E-05
 QS|                         eps_filter_matrix:                          0.0E+00
 QS|                         eps_core_charge:                            1.0E-12
 QS|                         eps_rho_gspace:                             1.0E-10
 QS|                         eps_rho_rspace:                             1.0E-10
 QS|                         eps_gvg_rspace:                             1.0E-05
 QS|                         eps_ppl:                                    1.0E-02
 QS|                         eps_ppnl:                                   1.0E-07


 ATOMIC KIND INFORMATION

  1. Atomic kind: O                                     Number of atoms:       3

     Orbital Basis Set                                               TZVP-GTH-q6

       Number of orbital shell sets:                                           2
       Number of orbital shells:                                               7
       Number of primitive Cartesian functions:                                6
       Number of Cartesian basis functions:                                   18
       Number of spherical basis functions:                                   17
       Norm type:                                                              2

       Normalised Cartesian orbitals:

                        Set   Shell   Orbital            Exponent    Coefficient

                          1       1    2s               10.267442       0.404544
                                                         3.748050       0.199889
                                                         1.330834      -0.336302
                                                         0.455680      -0.246356
                                                         0.146292      -0.028287

                          1       2    3s               10.267442       0.000000
                                                         3.748050       0.000000
                                                         1.330834       0.000000
                                                         0.455680       0.395280
                                                         0.146292       0.000000

                          1       3    4s               10.267442       0.000000
                                                         3.748050       0.000000
                                                         1.330834       0.000000
                                                         0.455680       0.000000
                                                         0.146292       0.168588

                          1       4    3px              10.267442      -1.561025
                                                         3.748050      -1.394275
                                                         1.330834      -0.754014
                                                         0.455680      -0.224400
                                                         0.146292      -0.029841
                          1       4    3py              10.267442      -1.561025
                                                         3.748050      -1.394275
                                                         1.330834      -0.754014
                                                         0.455680      -0.224400
                                                         0.146292      -0.029841
                          1       4    3pz              10.267442      -1.561025
                                                         3.748050      -1.394275
                                                         1.330834      -0.754014
                                                         0.455680      -0.224400
                                                         0.146292      -0.029841

                          1       5    4px              10.267442       0.000000
                                                         3.748050       0.000000
                                                         1.330834       0.000000
                                                         0.455680       0.533661
                                                         0.146292       0.000000
                          1       5    4py              10.267442       0.000000
                                                         3.748050       0.000000
                                                         1.330834       0.000000
                                                         0.455680       0.533661
                                                         0.146292       0.000000
                          1       5    4pz              10.267442       0.000000
                                                         3.748050       0.000000
                                                         1.330834       0.000000
                                                         0.455680       0.533661
                                                         0.146292       0.000000

                          1       6    5px              10.267442       0.000000
                                                         3.748050       0.000000
                                                         1.330834       0.000000
                                                         0.455680       0.000000
                                                         0.146292       0.128963
                          1       6    5py              10.267442       0.000000
                                                         3.748050       0.000000
                                                         1.330834       0.000000
                                                         0.455680       0.000000
                                                         0.146292       0.128963
                          1       6    5pz              10.267442       0.000000
                                                         3.748050       0.000000
                                                         1.330834       0.000000
                                                         0.455680       0.000000
                                                         0.146292       0.128963

                          2       1    3dx2              1.185000       2.215218
                          2       1    3dxy              1.185000       3.836871
                          2       1    3dxz              1.185000       3.836871
                          2       1    3dy2              1.185000       2.215218
                          2       1    3dyz              1.185000       3.836871
                          2       1    3dz2              1.185000       2.215218

       Atomic covalent radius [Angstrom]:                                  0.730

       Atomic van der Waals radius [Angstrom]:                             1.520

     GTH Potential information for                                       GTH-PBE

       Description:                       Goedecker-Teter-Hutter pseudopotential
                                           Goedecker et al., PRB 54, 1703 (1996)
                                          Hartwigsen et al., PRB 58, 3641 (1998)
                                                      Krack, TCA 114, 145 (2005)

       Gaussian exponent of the core charge distribution:               8.360253
       Electronic configuration (s p d ...):                               2   4

       Parameters of the local part of the GTH pseudopotential:

                          rloc        C1          C2          C3          C4
                        0.244554  -16.667215    2.487311

       Parameters of the non-local part of the GTH pseudopotential:

                   l      r(l)      h(i,j,l)

                   0    0.220956   18.337458
                   1    0.211332

  2. Atomic kind: N                                     Number of atoms:       1

     Orbital Basis Set                                               TZVP-GTH-q5

       Number of orbital shell sets:                                           2
       Number of orbital shells:                                               7
       Number of primitive Cartesian functions:                                6
       Number of Cartesian basis functions:                                   18
       Number of spherical basis functions:                                   17
       Norm type:                                                              2

       Normalised Cartesian orbitals:

                        Set   Shell   Orbital            Exponent    Coefficient

                          1       1    2s                7.622745       0.321703
                                                         2.797061       0.161118
                                                         0.990977      -0.264934
                                                         0.341731      -0.199987
                                                         0.111682      -0.023066

                          1       2    3s                7.622745       0.000000
                                                         2.797061       0.000000
                                                         0.990977       0.000000
                                                         0.341731       0.318547
                                                         0.111682       0.000000

                          1       3    4s                7.622745       0.000000
                                                         2.797061       0.000000
                                                         0.990977       0.000000
                                                         0.341731       0.000000
                                                         0.111682       0.137689

                          1       4    3px               7.622745      -1.014025
                                                         2.797061      -0.927144
                                                         0.990977      -0.514975
                                                         0.341731      -0.158623
                                                         0.111682      -0.021774
                          1       4    3py               7.622745      -1.014025
                                                         2.797061      -0.927144
                                                         0.990977      -0.514975
                                                         0.341731      -0.158623
                                                         0.111682      -0.021774
                          1       4    3pz               7.622745      -1.014025
                                                         2.797061      -0.927144
                                                         0.990977      -0.514975
                                                         0.341731      -0.158623
                                                         0.111682      -0.021774

                          1       5    4px               7.622745       0.000000
                                                         2.797061       0.000000
                                                         0.990977       0.000000
                                                         0.341731       0.372431
                                                         0.111682       0.000000
                          1       5    4py               7.622745       0.000000
                                                         2.797061       0.000000
                                                         0.990977       0.000000
                                                         0.341731       0.372431
                                                         0.111682       0.000000
                          1       5    4pz               7.622745       0.000000
                                                         2.797061       0.000000
                                                         0.990977       0.000000
                                                         0.341731       0.372431
                                                         0.111682       0.000000

                          1       6    5px               7.622745       0.000000
                                                         2.797061       0.000000
                                                         0.990977       0.000000
                                                         0.341731       0.000000
                                                         0.111682       0.092028
                          1       6    5py               7.622745       0.000000
                                                         2.797061       0.000000
                                                         0.990977       0.000000
                                                         0.341731       0.000000
                                                         0.111682       0.092028
                          1       6    5pz               7.622745       0.000000
                                                         2.797061       0.000000
                                                         0.990977       0.000000
                                                         0.341731       0.000000
                                                         0.111682       0.092028

                          2       1    3dx2              0.817000       1.155575
                          2       1    3dxy              0.817000       2.001514
                          2       1    3dxz              0.817000       2.001514
                          2       1    3dy2              0.817000       1.155575
                          2       1    3dyz              0.817000       2.001514
                          2       1    3dz2              0.817000       1.155575

       Atomic covalent radius [Angstrom]:                                  0.750

       Atomic van der Waals radius [Angstrom]:                             1.550

     GTH Potential information for                                       GTH-PBE

       Description:                       Goedecker-Teter-Hutter pseudopotential
                                           Goedecker et al., PRB 54, 1703 (1996)
                                          Hartwigsen et al., PRB 58, 3641 (1998)
                                                      Krack, TCA 114, 145 (2005)

       Gaussian exponent of the core charge distribution:               6.208322
       Electronic configuration (s p d ...):                               2   3

       Parameters of the local part of the GTH pseudopotential:

                          rloc        C1          C2          C3          C4
                        0.283791  -12.415226    1.868096

       Parameters of the non-local part of the GTH pseudopotential:

                   l      r(l)      h(i,j,l)

                   0    0.255405   13.630263
                   1    0.245495

  3. Atomic kind: C                                     Number of atoms:      24

     Orbital Basis Set                                               TZVP-GTH-q4

       Number of orbital shell sets:                                           2
       Number of orbital shells:                                               7
       Number of primitive Cartesian functions:                                6
       Number of Cartesian basis functions:                                   18
       Number of spherical basis functions:                                   17
       Norm type:                                                              2

       Normalised Cartesian orbitals:

                        Set   Shell   Orbital            Exponent    Coefficient

                          1       1    2s                5.368566       0.245056
                                                         1.983069       0.124102
                                                         0.697835      -0.198350
                                                         0.243097      -0.156359
                                                         0.081287      -0.018192

                          1       2    3s                5.368566       0.000000
                                                         1.983069       0.000000
                                                         0.697835       0.000000
                                                         0.243097       0.246743
                                                         0.081287       0.000000

                          1       3    4s                5.368566       0.000000
                                                         1.983069       0.000000
                                                         0.697835       0.000000
                                                         0.243097       0.000000
                                                         0.081287       0.108499

                          1       4    3px               5.368566      -0.595193
                                                         1.983069      -0.567909
                                                         0.697835      -0.325466
                                                         0.243097      -0.105296
                                                         0.081287      -0.015205
                          1       4    3py               5.368566      -0.595193
                                                         1.983069      -0.567909
                                                         0.697835      -0.325466
                                                         0.243097      -0.105296
                                                         0.081287      -0.015205
                          1       4    3pz               5.368566      -0.595193
                                                         1.983069      -0.567909
                                                         0.697835      -0.325466
                                                         0.243097      -0.105296
                                                         0.081287      -0.015205

                          1       5    4px               5.368566       0.000000
                                                         1.983069       0.000000
                                                         0.697835       0.000000
                                                         0.243097       0.243312
                                                         0.081287       0.000000
                          1       5    4py               5.368566       0.000000
                                                         1.983069       0.000000
                                                         0.697835       0.000000
                                                         0.243097       0.243312
                                                         0.081287       0.000000
                          1       5    4pz               5.368566       0.000000
                                                         1.983069       0.000000
                                                         0.697835       0.000000
                                                         0.243097       0.243312
                                                         0.081287       0.000000

                          1       6    5px               5.368566       0.000000
                                                         1.983069       0.000000
                                                         0.697835       0.000000
                                                         0.243097       0.000000
                                                         0.081287       0.061868
                          1       6    5py               5.368566       0.000000
                                                         1.983069       0.000000
                                                         0.697835       0.000000
                                                         0.243097       0.000000
                                                         0.081287       0.061868
                          1       6    5pz               5.368566       0.000000
                                                         1.983069       0.000000
                                                         0.697835       0.000000
                                                         0.243097       0.000000
                                                         0.081287       0.061868

                          2       1    3dx2              0.550000       0.578155
                          2       1    3dxy              0.550000       1.001394
                          2       1    3dxz              0.550000       1.001394
                          2       1    3dy2              0.550000       0.578155
                          2       1    3dyz              0.550000       1.001394
                          2       1    3dz2              0.550000       0.578155

       Atomic covalent radius [Angstrom]:                                  0.770

       Atomic van der Waals radius [Angstrom]:                             1.700

     GTH Potential information for                                       GTH-PBE

       Description:                       Goedecker-Teter-Hutter pseudopotential
                                           Goedecker et al., PRB 54, 1703 (1996)
                                          Hartwigsen et al., PRB 58, 3641 (1998)
                                                      Krack, TCA 114, 145 (2005)

       Gaussian exponent of the core charge distribution:               4.364419
       Electronic configuration (s p d ...):                               2   2

       Parameters of the local part of the GTH pseudopotential:

                          rloc        C1          C2          C3          C4
                        0.338471   -8.803674    1.339211

       Parameters of the non-local part of the GTH pseudopotential:

                   l      r(l)      h(i,j,l)

                   0    0.302576    9.622487
                   1    0.291507

  4. Atomic kind: H                                     Number of atoms:      21

     Orbital Basis Set                                               TZVP-GTH-q1

       Number of orbital shell sets:                                           2
       Number of orbital shells:                                               4
       Number of primitive Cartesian functions:                                6
       Number of Cartesian basis functions:                                    6
       Number of spherical basis functions:                                    6
       Norm type:                                                              2

       Normalised Cartesian orbitals:

                        Set   Shell   Orbital            Exponent    Coefficient

                          1       1    1s               10.882724      -0.071340
                                                         3.096875      -0.104410
                                                         0.987452      -0.135375
                                                         0.345069      -0.133923
                                                         0.149269      -0.073092

                          1       2    2s               10.882724       0.000000
                                                         3.096875       0.000000
                                                         0.987452       0.000000
                                                         0.345069       0.320878
                                                         0.149269       0.000000

                          1       3    3s               10.882724       0.000000
                                                         3.096875       0.000000
                                                         0.987452       0.000000
                                                         0.345069       0.000000
                                                         0.149269       0.171154

                          2       1    2px               0.727000       0.956881
                          2       1    2py               0.727000       0.956881
                          2       1    2pz               0.727000       0.956881

       Atomic covalent radius [Angstrom]:                                  0.320

       Atomic van der Waals radius [Angstrom]:                             1.090

     GTH Potential information for                                       GTH-PBE

       Description:                       Goedecker-Teter-Hutter pseudopotential
                                           Goedecker et al., PRB 54, 1703 (1996)
                                          Hartwigsen et al., PRB 58, 3641 (1998)
                                                      Krack, TCA 114, 145 (2005)

       Gaussian exponent of the core charge distribution:              12.500000
       Electronic configuration (s p d ...):                                   1

       Parameters of the local part of the GTH pseudopotential:

                          rloc        C1          C2          C3          C4
                        0.200000   -4.178900    0.724463


 MOLECULE KIND INFORMATION


 All atoms are their own molecule, skipping detailed information


 TOTAL NUMBERS AND MAXIMUM NUMBERS

  Total number of            - Atomic kinds:                                   4
                             - Atoms:                                         49
                             - Shell sets:                                    98
                             - Shells:                                       280
                             - Primitive Cartesian functions:                294
                             - Cartesian basis functions:                    630
                             - Spherical basis functions:                    602

  Maximum angular momentum of- Orbital basis functions:                        2
                             - Local part of the GTH pseudopotential:          2
                             - Non-local part of the GTH pseudopotential:      0


 MODULE QUICKSTEP: ATOMIC COORDINATES IN ANGSTROM

   Atom Kind Element         X             Y             Z       Z(eff)     Mass
      1    1 O     8     16.675158     13.800517     12.198954   6.0000  15.9994
      2    1 O     8     21.141764      8.298160     13.734103   6.0000  15.9994
      3    1 O     8      8.654895     21.345840     14.602720   6.0000  15.9994
      4    2 N     7     13.757306     18.369227     15.610785   5.0000  14.0067
      5    3 C     6     19.894393     11.728115     15.769817   4.0000  12.0107
      6    4 H     1     19.559522     12.627708     16.286630   1.0000   1.0079
      7    3 C     6     20.820081     10.887321     16.375385   4.0000  12.0107
      8    4 H     1     21.204326     11.130477     17.367481   1.0000   1.0079
      9    3 C     6     21.278632      9.722642     15.737299   4.0000  12.0107
     10    4 H     1     22.005815      9.082733     16.235243   1.0000   1.0079
     11    3 C     6     20.787162      9.408888     14.462413   4.0000  12.0107
     12    3 C     6     19.861188     10.258906     13.841539   4.0000  12.0107
     13    4 H     1     19.499136      9.996998     12.846475   1.0000   1.0079
     14    3 C     6     19.398208     11.419039     14.481250   4.0000  12.0107
     15    3 C     6     18.423602     12.244450     13.779358   4.0000  12.0107
     16    4 H     1     18.175113     11.945014     12.755584   1.0000   1.0079
     17    3 C     6     17.782010     13.337223     14.253492   4.0000  12.0107
     18    4 H     1     17.968854     13.694113     15.266031   1.0000   1.0079
     19    3 C     6     16.828868     14.082137     13.399757   4.0000  12.0107
     20    3 C     6     16.053705     15.204282     14.010788   4.0000  12.0107
     21    3 C     6     15.384173     16.093437     13.148098   4.0000  12.0107
     22    4 H     1     15.479958     15.933159     12.073204   1.0000   1.0079
     23    3 C     6     14.630840     17.145742     13.651194   4.0000  12.0107
     24    4 H     1     14.153466     17.856490     12.973897   1.0000   1.0079
     25    3 C     6     14.505600     17.328709     15.046911   4.0000  12.0107
     26    3 C     6     15.194965     16.459437     15.913467   4.0000  12.0107
     27    4 H     1     15.108923     16.620264     16.988937   1.0000   1.0079
     28    3 C     6     15.946901     15.406971     15.400762   4.0000  12.0107
     29    4 H     1     16.440531     14.727497     16.095581   1.0000   1.0079
     30    3 C     6     12.626383     18.689681     15.077995   4.0000  12.0107
     31    4 H     1     12.202814     18.111723     14.234961   1.0000   1.0079
     32    3 C     6     11.817722     19.807960     15.557113   4.0000  12.0107
     33    3 C     6     10.614490     20.092890     14.900184   4.0000  12.0107
     34    4 H     1     10.286231     19.494705     14.048146   1.0000   1.0079
     35    3 C     6      9.808297     21.157765     15.325756   4.0000  12.0107
     36    3 C     6     10.204874     21.938457     16.421116   4.0000  12.0107
     37    4 H     1      9.591477     22.767211     16.772191   1.0000   1.0079
     38    3 C     6     11.413833     21.643899     17.074667   4.0000  12.0107
     39    4 H     1     11.715219     22.255675     17.926796   1.0000   1.0079
     40    3 C     6     12.222430     20.594963     16.656293   4.0000  12.0107
     41    4 H     1     13.161013     20.356035     17.155394   1.0000   1.0079
     42    3 C     6     22.103935      7.410691     14.319530   4.0000  12.0107
     43    4 H     1     22.253254      6.611810     13.584011   1.0000   1.0079
     44    4 H     1     21.726795      6.977715     15.260986   1.0000   1.0079
     45    4 H     1     23.060830      7.926827     14.503981   1.0000   1.0079
     46    3 C     6      7.792444     22.412432     15.025388   4.0000  12.0107
     47    4 H     1      6.939170     22.394382     14.338105   1.0000   1.0079
     48    4 H     1      8.301497     23.388190     14.954805   1.0000   1.0079
     49    4 H     1      7.438164     22.250729     16.057173   1.0000   1.0079



 SCF PARAMETERS         Density guess:                                   RESTART
                        --------------------------------------------------------
                        max_scf:                                             128
                        max_scf_history:                                       0
                        max_diis:                                              4
                        --------------------------------------------------------
                        eps_scf:                                        1.00E-05
                        eps_scf_history:                                0.00E+00
                        eps_diis:                                       1.00E-01
                        eps_eigval:                                     1.00E-05
                        --------------------------------------------------------
                        level_shift [a.u.]:                             0.000000
                        added MOs                                        70    0
                        --------------------------------------------------------
                        Mixing method:                            BROYDEN_MIXING
                                                charge density mixing in g-space
                        --------------------------------------------------------
                        No outer SCF

 PW_GRID| Information for grid number                                          1
 PW_GRID| Grid distributed over                                    90 processors
 PW_GRID| Real space group dimensions                                    90    1
 PW_GRID| the grid is blocked:                                                NO
 PW_GRID| Cutoff [a.u.]                                                    250.0
 PW_GRID| spherical cutoff:                                                   NO
 PW_GRID|   Bounds   1           -202     202                Points:         405
 PW_GRID|   Bounds   2           -202     202                Points:         405
 PW_GRID|   Bounds   3           -202     202                Points:         405
 PW_GRID| Volume element (a.u.^3)  0.2743E-02     Volume (a.u.^3)    182205.0337
 PW_GRID| Grid span                                                    FULLSPACE
 PW_GRID|   Distribution                         Average         Max         Min
 PW_GRID|   G-Vectors                           738112.5      738315      737910
 PW_GRID|   G-Rays                                1822.5        1823        1822
 PW_GRID|   Real Space Points                   738112.5      820125      656100

 PW_GRID| Information for grid number                                          2
 PW_GRID| Number of the reference grid                                         1
 PW_GRID| Grid distributed over                                    90 processors
 PW_GRID| Real space group dimensions                                    90    1
 PW_GRID| the grid is blocked:                                                NO
 PW_GRID| Cutoff [a.u.]                                                     83.3
 PW_GRID| spherical cutoff:                                                   NO
 PW_GRID|   Bounds   1           -120     119                Points:         240
 PW_GRID|   Bounds   2           -120     119                Points:         240
 PW_GRID|   Bounds   3           -120     119                Points:         240
 PW_GRID| Volume element (a.u.^3)  0.1318E-01     Volume (a.u.^3)    182205.0337
 PW_GRID| Grid span                                                    FULLSPACE
 PW_GRID|   Distribution                         Average         Max         Min
 PW_GRID|   G-Vectors                           153600.0      153840      153360
 PW_GRID|   G-Rays                                 640.0         641         639
 PW_GRID|   Real Space Points                   153600.0      172800      115200

 PW_GRID| Information for grid number                                          3
 PW_GRID| Number of the reference grid                                         1
 PW_GRID| Grid distributed over                                    90 processors
 PW_GRID| Real space group dimensions                                    90    1
 PW_GRID| the grid is blocked:                                                NO
 PW_GRID| Cutoff [a.u.]                                                     27.8
 PW_GRID| spherical cutoff:                                                   NO
 PW_GRID|   Bounds   1            -67      67                Points:         135
 PW_GRID|   Bounds   2            -67      67                Points:         135
 PW_GRID|   Bounds   3            -67      67                Points:         135
 PW_GRID| Volume element (a.u.^3)  0.7406E-01     Volume (a.u.^3)    182205.0337
 PW_GRID| Grid span                                                    FULLSPACE
 PW_GRID|   Distribution                         Average         Max         Min
 PW_GRID|   G-Vectors                            27337.5       27675       27000
 PW_GRID|   G-Rays                                 202.5         205         200
 PW_GRID|   Real Space Points                    27337.5       36450       18225

 PW_GRID| Information for grid number                                          4
 PW_GRID| Number of the reference grid                                         1
 PW_GRID| Grid distributed over                                    90 processors
 PW_GRID| Real space group dimensions                                     9   10
 PW_GRID| the grid is blocked:                                                NO
 PW_GRID| Cutoff [a.u.]                                                      9.3
 PW_GRID| spherical cutoff:                                                   NO
 PW_GRID|   Bounds   1            -40      39                Points:          80
 PW_GRID|   Bounds   2            -40      39                Points:          80
 PW_GRID|   Bounds   3            -40      39                Points:          80
 PW_GRID| Volume element (a.u.^3)  0.3559         Volume (a.u.^3)    182205.0337
 PW_GRID| Grid span                                                    FULLSPACE
 PW_GRID|   Distribution                         Average         Max         Min
 PW_GRID|   G-Vectors                             5688.9        5840        5520
 PW_GRID|   G-Rays                                  71.1          73          69
 PW_GRID|   Real Space Points                     5688.9        5760        5120

 PW_GRID| Information for grid number                                          5
 PW_GRID| Number of the reference grid                                         1
 PW_GRID| Grid distributed over                                    90 processors
 PW_GRID| Real space group dimensions                                     9   10
 PW_GRID| the grid is blocked:                                                NO
 PW_GRID| Cutoff [a.u.]                                                      3.1
 PW_GRID| spherical cutoff:                                                   NO
 PW_GRID|   Bounds   1            -22      22                Points:          45
 PW_GRID|   Bounds   2            -22      22                Points:          45
 PW_GRID|   Bounds   3            -22      22                Points:          45
 PW_GRID| Volume element (a.u.^3)   2.000         Volume (a.u.^3)    182205.0337
 PW_GRID| Grid span                                                    FULLSPACE
 PW_GRID|   Distribution                         Average         Max         Min
 PW_GRID|   G-Vectors                             1012.5        1125         900
 PW_GRID|   G-Rays                                  22.5          25          20
 PW_GRID|   Real Space Points                     1012.5        1125         900

 PW_GRID| Information for grid number                                          6
 PW_GRID| Number of the reference grid                                         1
 PW_GRID| Grid distributed over                                    90 processors
 PW_GRID| Real space group dimensions                                     9   10
 PW_GRID| the grid is blocked:                                                NO
 PW_GRID| Cutoff [a.u.]                                                      1.0
 PW_GRID| spherical cutoff:                                                   NO
 PW_GRID|   Bounds   1            -12      12                Points:          25
 PW_GRID|   Bounds   2            -12      12                Points:          25
 PW_GRID|   Bounds   3            -12      12                Points:          25
 PW_GRID| Volume element (a.u.^3)   11.66         Volume (a.u.^3)    182205.0337
 PW_GRID| Grid span                                                    FULLSPACE
 PW_GRID|   Distribution                         Average         Max         Min
 PW_GRID|   G-Vectors                              173.6         200         150
 PW_GRID|   G-Rays                                   6.9           8           6
 PW_GRID|   Real Space Points                      173.6         225         100

 POISSON| Solver                                                         WAVELET
 POISSON| Wavelet| Scaling function                                           40
 POISSON| Periodicity                                                       NONE

 RS_GRID| Information for grid number                                          1
 RS_GRID|   Bounds   1           -202     202                Points:         405
 RS_GRID|   Bounds   2           -202     202                Points:         405
 RS_GRID|   Bounds   3           -202     202                Points:         405
 RS_GRID| Real space distribution over                                  3 groups
 RS_GRID| Real space distribution along direction                              1
 RS_GRID| Border size                                                         26
 RS_GRID| Real space distribution over                                  5 groups
 RS_GRID| Real space distribution along direction                              2
 RS_GRID| Border size                                                         26
 RS_GRID| Real space distribution over                                  6 groups
 RS_GRID| Real space distribution along direction                              3
 RS_GRID| Border size                                                         26
 RS_GRID|   Distribution                         Average         Max         Min
 RS_GRID|   Planes                                 187.0         187         187
 RS_GRID|   Distribution                         Average         Max         Min
 RS_GRID|   Planes                                 133.0         133         133
 RS_GRID|   Distribution                         Average         Max         Min
 RS_GRID|   Planes                                 119.5         120         119

 RS_GRID| Information for grid number                                          2
 RS_GRID|   Bounds   1           -120     119                Points:         240
 RS_GRID|   Bounds   2           -120     119                Points:         240
 RS_GRID|   Bounds   3           -120     119                Points:         240
 RS_GRID| Real space distribution over                                  3 groups
 RS_GRID| Real space distribution along direction                              1
 RS_GRID| Border size                                                         27
 RS_GRID| Real space distribution over                                  5 groups
 RS_GRID| Real space distribution along direction                              2
 RS_GRID| Border size                                                         27
 RS_GRID| Real space distribution over                                  6 groups
 RS_GRID| Real space distribution along direction                              3
 RS_GRID| Border size                                                         27
 RS_GRID|   Distribution                         Average         Max         Min
 RS_GRID|   Planes                                 134.0         134         134
 RS_GRID|   Distribution                         Average         Max         Min
 RS_GRID|   Planes                                 102.0         102         102
 RS_GRID|   Distribution                         Average         Max         Min
 RS_GRID|   Planes                                  94.0          94          94

 RS_GRID| Information for grid number                                          3
 RS_GRID|   Bounds   1            -67      67                Points:         135
 RS_GRID|   Bounds   2            -67      67                Points:         135
 RS_GRID|   Bounds   3            -67      67                Points:         135
 RS_GRID| Real space fully replicated
 RS_GRID| Group size                                                           1

 RS_GRID| Information for grid number                                          4
 RS_GRID|   Bounds   1            -40      39                Points:          80
 RS_GRID|   Bounds   2            -40      39                Points:          80
 RS_GRID|   Bounds   3            -40      39                Points:          80
 RS_GRID| Real space fully replicated
 RS_GRID| Group size                                                           1

 RS_GRID| Information for grid number                                          5
 RS_GRID|   Bounds   1            -22      22                Points:          45
 RS_GRID|   Bounds   2            -22      22                Points:          45
 RS_GRID|   Bounds   3            -22      22                Points:          45
 RS_GRID| Real space fully replicated
 RS_GRID| Group size                                                           1

 RS_GRID| Information for grid number                                          6
 RS_GRID|   Bounds   1            -12      12                Points:          25
 RS_GRID|   Bounds   2            -12      12                Points:          25
 RS_GRID|   Bounds   3            -12      12                Points:          25
 RS_GRID| Real space fully replicated
 RS_GRID| Group size                                                           1

 Number of electrons:                                                        140
 Number of occupied orbitals:                                                 70
 Number of molecular orbitals:                                               140

 Number of orbital functions:                                                602
 Number of independent orbital functions:                                    602

 Extrapolation method: initial_guess


 SCF WAVEFUNCTION OPTIMIZATION

  Step     Update method      Time    Convergence         Total energy    Change
  ------------------------------------------------------------------------------
     1 NoMix/Diag. 0.40E+00    4.2     0.75488141      -206.9602260311 -2.07E+02
     2 Broy./Diag. 0.40E+00    3.8     0.20782662      -207.4067380071 -4.47E-01
     3 Broy./Diag. 0.40E+00    3.8     0.03274133      -206.8659441914  5.41E-01
     4 Broy./Diag. 0.40E+00    3.8     0.04658399      -206.9735336719 -1.08E-01
     5 Broy./Diag. 0.40E+00    3.9     0.01614023      -206.9486887536  2.48E-02
     6 Broy./Diag. 0.40E+00    3.9     0.00798662      -206.9715353679 -2.28E-02
  SCCS| Total electronic charge density                        -139.999999995789
  SCCS| Total charge density (solute)                            -0.000000005597
  SCCS| Volume of the cell           [bohr^3]                         182205.034
  SCCS|                              [angstrom^3]                      27000.000
  SCCS| Volume of the solute cavity  [bohr^3]                           3633.494
  SCCS|                              [angstrom^3]                        538.428
  SCCS| Surface of the solute cavity [bohr^2]                           1656.434
  SCCS|                              [angstrom^2]                        463.849
  SCCS|
  SCCS|   Step    Average residual    Maximum residual         E(Hartree) [a.u.]
  SCCS|      1          0.00002333          1.70587216          200.798263545596
  SCCS|      2          0.00001858          1.00114759          200.872200032873
  SCCS|      3          0.00000660          0.58362185          200.930013651685
  SCCS|      4          0.00000316          0.34013083          200.968105983795
  SCCS|      5          0.00000172          0.19811875          200.990311530708
  SCCS|      6          0.00000104          0.11540123          201.001286066902
  SCCS|      7          0.00000063          0.06712120          201.006369474011
  SCCS|      8          0.00000043          0.03903787          201.009156851613
  SCCS|      9          0.00000028          0.02269563          201.011080334247
  SCCS|     10          0.00000018          0.01319706          201.012421334532
  SCCS|     11          0.00000012          0.00768804          201.013224119532
  SCCS|     12          0.00000008          0.00449876          201.013619273750
  SCCS|     13          0.00000005          0.00262105          201.013788245416
  SCCS|     14          0.00000004          0.00152117          201.013869009326
  SCCS|     15          0.00000002          0.00088787          201.013925565974
  SCCS|     16          0.00000002          0.00052031          201.013971440440
  SCCS|     17          0.00000001          0.00030147          201.014003508154
  SCCS|     18          7.5487E-09          1.7584E-04          201.014020934492
  SCCS|     19          5.2431E-09          1.0401E-04          201.014028059715
  SCCS|     20          3.5200E-09          6.0572E-05          201.014030462623
  SCCS|     21          2.3961E-09          3.4791E-05          201.014031729816
  SCCS|     22          1.7255E-09          2.0887E-05          201.014033032668
  SCCS|     23          1.1950E-09          1.2334E-05          201.014034261773
  SCCS|     24          8.1364E-10          7.1301E-06          201.014035116785
  SCCS|     25          5.9245E-10          4.1568E-06          201.014035539254
  SCCS|     26          4.2938E-10          2.5654E-06          201.014035669212
  SCCS|     27          2.9585E-10          1.5233E-06          201.014035679687
  SCCS|     28          2.1188E-10          8.1831E-07          201.014035679289
  SCCS|     29          1.6004E-10          5.4396E-07          201.014035701999
  SCCS|     30          1.1460E-10          3.6013E-07          201.014035738536
  SCCS|     31          8.0619E-11          1.9582E-07          201.014035769815
  SCCS|     32          6.1172E-11          1.1439E-07          201.014035785643
  SCCS|     33          4.6807E-11          9.0204E-08          201.014035787765
  SCCS| Iteration cycle converged in 33 steps
  SCCS|
  SCCS| Polarisation charge                                      -0.000972190069
  SCCS|
  SCCS| Hartree energy of solute and solvent [Hartree]        201.01403578391603
  SCCS| Hartree energy of the solute only    [Hartree]        200.93260808343666
  SCCS| Polarisation energy                  [Hartree]          0.08142770047935
  SCCS|                                      [kcal/mol]                   51.097
  SCCS| Cavitation energy                    [Hartree]          0.03874855043877
  SCCS|                                      [kcal/mol]                   24.315
  SCCS| Dispersion free energy               [Hartree]         -0.06174998190815
  SCCS|                                      [kcal/mol]                  -38.749
  SCCS| Repulsion free energy                [Hartree]          0.01051168803776
  SCCS|                                      [kcal/mol]                    6.596
  SCCS| Solvation free energy                [Hartree]          0.06893795704773
  SCCS|                                      [kcal/mol]                   43.259
     7 Broy./Diag. 0.40E+00   48.8     0.53496530      -206.9011257904  7.04E-02
  SCCS| Total electronic charge density                        -139.999999995792
  SCCS| Total charge density (solute)                            -0.000000005599
  SCCS| Volume of the cell           [bohr^3]                         182205.034
  SCCS|                              [angstrom^3]                      27000.000
  SCCS| Volume of the solute cavity  [bohr^3]                           3633.033
  SCCS|                              [angstrom^3]                        538.360
  SCCS| Surface of the solute cavity [bohr^2]                           1656.275
  SCCS|                              [angstrom^2]                        463.804
  SCCS|
  SCCS|   Step    Average residual    Maximum residual         E(Hartree) [a.u.]
  SCCS|      1          0.00000013          0.05129716          201.009481527884
  SCCS|      2          0.00000008          0.03023519          201.011478047895
  SCCS|      3          0.00000005          0.01778442          201.012888942848
  SCCS|      4          0.00000003          0.01044700          201.013794807955
  SCCS|      5          0.00000002          0.00612561          201.014318871221
  SCCS|      6          0.00000001          0.00358686          201.014601168427
  SCCS|      7          8.3182E-09          2.1003E-03          201.014754248092
  SCCS|      8          5.9074E-09          1.2311E-03          201.014844386892
  SCCS|      9          3.8427E-09          7.2217E-04          201.014901680460
  SCCS|     10          2.5524E-09          4.2348E-04          201.014937917836
  SCCS|     11          1.8085E-09          2.4828E-04          201.014959089984
  SCCS|     12          1.2118E-09          1.4561E-04          201.014970272873
  SCCS|     13          8.0115E-10          8.5289E-05          201.014975913876
  SCCS|     14          5.5670E-10          5.0036E-05          201.014979032075
  SCCS|     15          3.8235E-10          2.9370E-05          201.014981081724
  SCCS|     16          2.5575E-10          1.7258E-05          201.014982512392
  SCCS|     17          1.7514E-10          1.0112E-05          201.014983422218
  SCCS|     18          1.2196E-10          5.9449E-06          201.014983911409
  SCCS|     19          8.2994E-11          3.4996E-06          201.014984135628
  SCCS|     20          5.6205E-11          2.0531E-06          201.014984238557
  SCCS|     21          3.9248E-11          1.2033E-06          201.014984303130
  SCCS|     22          2.7451E-11          7.1368E-07          201.014984355725
  SCCS|     23          1.8789E-11          4.1873E-07          201.014984395879
  SCCS|     24          1.3050E-11          2.4403E-07          201.014984420420
  SCCS|     25          9.2852E-12          1.4516E-07          201.014984431704
  SCCS|     26          6.5167E-12          8.6159E-08          201.014984435472
  SCCS| Iteration cycle converged in 26 steps
  SCCS|
  SCCS| Polarisation charge                                      -0.001017898373
  SCCS|
  SCCS| Hartree energy of solute and solvent [Hartree]        201.01498443672949
  SCCS| Hartree energy of the solute only    [Hartree]        200.92875245856757
  SCCS| Polarisation energy                  [Hartree]          0.08623197816194
  SCCS|                                      [kcal/mol]                   54.111
  SCCS| Cavitation energy                    [Hartree]          0.03874482329989
  SCCS|                                      [kcal/mol]                   24.313
  SCCS| Dispersion free energy               [Hartree]         -0.06174215536522
  SCCS|                                      [kcal/mol]                  -38.744
  SCCS| Repulsion free energy                [Hartree]          0.01051067694132
  SCCS|                                      [kcal/mol]                    6.596
  SCCS| Solvation free energy                [Hartree]          0.07374532303793
  SCCS|                                      [kcal/mol]                   46.276
     8 Broy./Diag. 0.40E+00   39.7     0.00211378      -206.2812819358  6.20E-01
  SCCS| Total electronic charge density                        -139.999999995793
  SCCS| Total charge density (solute)                            -0.000000005600
  SCCS| Volume of the cell           [bohr^3]                         182205.034
  SCCS|                              [angstrom^3]                      27000.000
  SCCS| Volume of the solute cavity  [bohr^3]                           3632.458
  SCCS|                              [angstrom^3]                        538.275
  SCCS| Surface of the solute cavity [bohr^2]                           1656.061
  SCCS|                              [angstrom^2]                        463.744
  SCCS|
  SCCS|   Step    Average residual    Maximum residual         E(Hartree) [a.u.]
  SCCS|      1          0.00000012          0.06763863          201.006343622657
  SCCS|      2          0.00000007          0.04022296          201.009495807565
  SCCS|      3          0.00000004          0.02386068          201.011578417164
  SCCS|      4          0.00000003          0.01413295          201.012873064473
  SCCS|      5          0.00000002          0.00835919          201.013627107212
  SCCS|      6          0.00000001          0.00493979          201.014047431059
  SCCS|      7          7.3482E-09          2.9191E-03          201.014282328248
  SCCS|      8          5.1888E-09          1.7260E-03          201.014419655682
  SCCS|      9          3.3833E-09          1.0211E-03          201.014503697232
  SCCS|     10          2.2408E-09          6.0401E-04          201.014555247307
  SCCS|     11          1.5921E-09          3.5718E-04          201.014585458948
  SCCS|     12          1.0659E-09          2.1140E-04          201.014602106980
  SCCS|     13          6.9952E-10          1.2495E-04          201.014611041567
  SCCS|     14          4.8817E-10          7.3965E-05          201.014616097643
  SCCS|     15          3.3596E-10          4.3793E-05          201.014619263554
  SCCS|     16          2.2387E-10          2.5943E-05          201.014621338856
  SCCS|     17          1.5382E-10          1.5350E-05          201.014622630887
  SCCS|     18          1.0753E-10          9.1015E-06          201.014623352722
  SCCS|     19          7.2635E-11          5.3963E-06          201.014623719088
  SCCS|     20          4.9149E-11          3.1941E-06          201.014623907408
  SCCS|     21          3.4528E-11          1.8925E-06          201.014624022310
  SCCS|     22          2.3978E-11          1.1266E-06          201.014624104404
  SCCS|     23          1.6336E-11          6.6588E-07          201.014624161976
  SCCS|     24          1.1402E-11          3.9294E-07          201.014624196882
  SCCS|     25          8.0719E-12          2.3457E-07          201.014624214361
  SCCS|     26          5.6117E-12          1.3945E-07          201.014624221872
  SCCS|     27          3.9189E-12          8.2598E-08          201.014624225440
  SCCS| Iteration cycle converged in 27 steps
  SCCS|
  SCCS| Polarisation charge                                      -0.001085074149
  SCCS|
  SCCS| Hartree energy of solute and solvent [Hartree]        201.01462422806549
  SCCS| Hartree energy of the solute only    [Hartree]        200.92114312912693
  SCCS| Polarisation energy                  [Hartree]          0.09348109893859
  SCCS|                                      [kcal/mol]                   58.660
  SCCS| Cavitation energy                    [Hartree]          0.03873981702847
  SCCS|                                      [kcal/mol]                   24.310
  SCCS| Dispersion free energy               [Hartree]         -0.06173238249922
  SCCS|                                      [kcal/mol]                  -38.738
  SCCS| Repulsion free energy                [Hartree]          0.01050931884243
  SCCS|                                      [kcal/mol]                    6.595
  SCCS| Solvation free energy                [Hartree]          0.08099785231027
  SCCS|                                      [kcal/mol]                   50.827
     9 Broy./Diag. 0.40E+00   41.1     0.00191647      -206.2963937386 -1.51E-02
  SCCS| Total electronic charge density                        -139.999999995812
  SCCS| Total charge density (solute)                            -0.000000005619
  SCCS| Volume of the cell           [bohr^3]                         182205.034
  SCCS|                              [angstrom^3]                      27000.000
  SCCS| Volume of the solute cavity  [bohr^3]                           3624.897
  SCCS|                              [angstrom^3]                        537.154
  SCCS| Surface of the solute cavity [bohr^2]                           1653.237
  SCCS|                              [angstrom^2]                        462.954
  SCCS|
  SCCS|   Step    Average residual    Maximum residual         E(Hartree) [a.u.]
  SCCS|      1          0.00000146          0.47410977          200.926870896646
  SCCS|      2          0.00000091          0.25899067          200.944942912510
  SCCS|      3          0.00000057          0.14175065          200.958510532746
  SCCS|      4          0.00000034          0.07766848          200.967469863971
  SCCS|      5          0.00000023          0.04256826          200.972670867081
  SCCS|      6          0.00000015          0.02334168          200.975425182714
  SCCS|      7          0.00000009          0.01282215          200.976890583614
  SCCS|      8          0.00000007          0.00706231          200.977759334677
  SCCS|      9          0.00000004          0.00422425          200.978329766810
  SCCS|     10          0.00000003          0.00257264          200.978701814774
  SCCS|     11          0.00000002          0.00156740          200.978921414352
  SCCS|     12          0.00000001          0.00095505          200.979035469877
  SCCS|     13          9.2514E-09          5.8042E-04          200.979090901975
  SCCS|     14          6.4505E-09          3.5350E-04          200.979121079344
  SCCS|     15          4.4449E-09          2.1606E-04          200.979141793083
  SCCS|     16          2.9683E-09          1.3161E-04          200.979157123448
  SCCS|     17          2.0338E-09          7.9947E-05          200.979167229198
  SCCS|     18          1.4230E-09          4.8909E-05          200.979172688176
  SCCS|     19          9.6538E-10          2.9942E-05          200.979175103194
  SCCS|     20          6.5215E-10          1.8187E-05          200.979176142553
  SCCS|     21          4.5788E-10          1.1083E-05          200.979176806009
  SCCS|     22          3.1941E-10          6.8482E-06          200.979177399506
  SCCS|     23          2.1742E-10          4.1551E-06          200.979177885557
  SCCS|     24          1.5154E-10          2.5066E-06          200.979178194318
  SCCS|     25          1.0788E-10          1.5593E-06          200.979178337745
  SCCS|     26          7.5167E-11          9.5936E-07          200.979178383459
  SCCS|     27          5.2353E-11          5.8084E-07          200.979178396629
  SCCS|     28          3.7364E-11          3.5568E-07          200.979178410509
  SCCS|     29          2.6823E-11          2.2353E-07          200.979178429974
  SCCS|     30          1.9044E-11          1.3905E-07          200.979178448172
  SCCS|     31          1.3505E-11          8.0932E-08          200.979178459493
  SCCS| Iteration cycle converged in 31 steps
  SCCS|
  SCCS| Polarisation charge                                      -0.001514098122
  SCCS|
  SCCS| Hartree energy of solute and solvent [Hartree]        200.97917846365539
  SCCS| Hartree energy of the solute only    [Hartree]        200.84220463999665
  SCCS| Polarisation energy                  [Hartree]          0.13697382365868
  SCCS|                                      [kcal/mol]                   85.952
  SCCS| Cavitation energy                    [Hartree]          0.03867376019863
  SCCS|                                      [kcal/mol]                   24.268
  SCCS| Dispersion free energy               [Hartree]         -0.06160388722610
  SCCS|                                      [kcal/mol]                  -38.657
  SCCS| Repulsion free energy                [Hartree]          0.01049139897755
  SCCS|                                      [kcal/mol]                    6.583
  SCCS| Solvation free energy                [Hartree]          0.12453509560876
  SCCS|                                      [kcal/mol]                   78.147
    10 Broy./Diag. 0.40E+00   46.5     0.03026637      -206.3653918406 -6.90E-02
  SCCS| Total electronic charge density                        -139.999999995815
  SCCS| Total charge density (solute)                            -0.000000005623
  SCCS| Volume of the cell           [bohr^3]                         182205.034
[...]
     Particle-Hole state: 5   Spin:1     Eigenvalue: 0.03563   Sum Eigv: 0.96827
     Particle-Hole state: 6   Spin:1     Eigenvalue: 0.02075   Sum Eigv: 0.98901
 -------------------------------------------------------------------------------

 ENERGY| Total FORCE_EVAL ( QS ) energy [a.u.]:             -206.827527361796598

 -------------------------------------------------------------------------------
 -                                                                             -
 -                                DBCSR STATISTICS                             -
 -                                                                             -
 -------------------------------------------------------------------------------
 COUNTER                                    TOTAL       BLAS       SMM       ACC
 flops     6 x    20 x     6               671040       0.0%    100.0%      0.0%
 flops     6 x    20 x    17              3174240       0.0%    100.0%      0.0%
 flops    17 x    20 x     6              3174240       0.0%    100.0%      0.0%
 flops     6 x     6 x    12              3840480       0.0%    100.0%      0.0%
 flops    17 x    20 x    17             14565600       0.0%    100.0%      0.0%
 flops    17 x     6 x    12             16621920       0.0%    100.0%      0.0%
 flops     6 x    17 x    12             16707600       0.0%    100.0%      0.0%
 flops    17 x    17 x    12             79868040       0.0%    100.0%      0.0%
 flops     6 x    17 x     6            167076000       0.0%    100.0%      0.0%
 flops     6 x     6 x     6            184758624       0.0%    100.0%      0.0%
 flops     6 x     6 x    32            450616320       0.0%    100.0%      0.0%
 flops     6 x     6 x    17            692301744       0.0%    100.0%      0.0%
 flops    17 x    17 x     6            798680400       0.0%    100.0%      0.0%
 flops    17 x     6 x     6            858520944       0.0%    100.0%      0.0%
 flops     6 x    32 x     6           1579896576       0.0%    100.0%      0.0%
 flops    17 x     6 x    32           1950305280       0.0%    100.0%      0.0%
 flops     6 x    17 x    32           1960358400       0.0%    100.0%      0.0%
 flops    17 x     6 x    17           3176757360       0.0%    100.0%      0.0%
 flops    17 x    32 x     6           7473430656       0.0%    100.0%      0.0%
 flops     6 x    32 x    17           7473430656       0.0%    100.0%      0.0%
 flops    17 x    17 x    32           9371183360       0.0%    100.0%      0.0%
 flops    17 x    32 x    17          34293248640       0.0%    100.0%      0.0%
 flops inhomo. stacks                           0       0.0%      0.0%      0.0%
 flops total                        70.569188E+09       0.0%    100.0%      0.0%
 flops max/rank                      5.105412E+09       0.0%    100.0%      0.0%
 matmuls inhomo. stacks                         0       0.0%      0.0%      0.0%
 matmuls total                            9141134       0.0%    100.0%      0.0%
 number of processed stacks               3656289       0.0%    100.0%      0.0%
 average stack size                                     0.0       2.5       0.0
 marketing flops                   111.881429E+09
 -------------------------------------------------------------------------------
 # multiplications                           2192
 max memory usage/rank               1.416901E+09
 # max total images/rank                        5
 # max 3D layers                                1
 # MPI messages exchanged                10455840
 MPI messages size (bytes):
  total size                        51.437216E+09
  min size                           0.000000E+00
  max size                          29.440000E+03
  average size                       4.919472E+03
 MPI breakdown and total messages size (bytes):
             size <=      128             5763225                        0
       128 < size <=     8192             1698862               7079264976
      8192 < size <=    32768             2993753              44360923600
     32768 < size <=   131072                   0                        0
    131072 < size <=  4194304                   0                        0
   4194304 < size <= 16777216                   0                        0
  16777216 < size                               0                        0
 -------------------------------------------------------------------------------

 *** WARNING in dbcsr_mm.F:291 :: Using a non-square number of MPI ranks ***
 *** might lead to poor performance. Used ranks: 90 Suggested: 81 169    ***

 -------------------------------------------------------------------------------
 -                                                                             -
 -                      DBCSR MESSAGE PASSING PERFORMANCE                      -
 -                                                                             -
 -------------------------------------------------------------------------------
 ROUTINE             CALLS      AVE VOLUME [Bytes]
 MP_Bcast               23                     12.
 MP_Allreduce         8177                      8.
 MP_Alltoall         40965                  26669.
 MP_ISend           252802                   3502.
 MP_IRecv           257186                   3116.
 -------------------------------------------------------------------------------

 -------------------------------------------------------------------------------
 -                                                                             -
 -                                DBM STATISTICS                               -
 -                                                                             -
 -------------------------------------------------------------------------------
    M  x    N  x    K                                          COUNT     PERCENT
 -------------------------------------------------------------------------------

 -------------------------------------------------------------------------------
 -                                                                             -
 -                                GRID STATISTICS                              -
 -                                                                             -
 -------------------------------------------------------------------------------
 LP    KERNEL             BACKEND                              COUNT     PERCENT
 2     collocate ortho    CPU                                2397502      20.93%
 2     integrate ortho    CPU                                2385024      20.82%
 1     collocate ortho    CPU                                1942288      16.95%
 1     integrate ortho    CPU                                1931904      16.86%
 3     collocate ortho    CPU                                 745752       6.51%
 3     integrate ortho    CPU                                 741888       6.48%
 0     collocate ortho    CPU                                 583070       5.09%
 0     integrate ortho    CPU                                 579840       5.06%
 4     collocate ortho    CPU                                  67936       0.59%
 4     integrate ortho    CPU                                  67584       0.59%
 0     collocate general  CPU                                   8820       0.08%
 0     integrate general  CPU                                   4410       0.04%
 -------------------------------------------------------------------------------

 MEMORY| Estimated peak process memory [MiB]                                1356

 -------------------------------------------------------------------------------
 ----                             MULTIGRID INFO                            ----
 -------------------------------------------------------------------------------
 count for grid        1:        3822106          cutoff [a.u.]          250.00
 count for grid        2:        1716137          cutoff [a.u.]           83.33
 count for grid        3:         781337          cutoff [a.u.]           27.78
 count for grid        4:         215240          cutoff [a.u.]            9.26
 count for grid        5:           7560          cutoff [a.u.]            3.09
 count for grid        6:              0          cutoff [a.u.]            1.03
 total gridlevel count  :        6542380

 -------------------------------------------------------------------------------
 -                                                                             -
 -                         MESSAGE PASSING PERFORMANCE                         -
 -                                                                             -
 -------------------------------------------------------------------------------

 ROUTINE             CALLS      AVE VOLUME [Bytes]
 MP_Group                6
 MP_Bcast              407                1723145.
 MP_Allreduce        54357                     99.
 MP_Sync               176
 MP_Alltoall         19002               25853398.
 MP_SendRecv        138484                  86897.
 MP_ISendRecv       136704                  87120.
 MP_Wait            207976
 MP_comm_split         142
 MP_ISend            59724                 460669.
 MP_IRecv            64636                 426249.
 MP_Write_All            2               10799325.
 -------------------------------------------------------------------------------


 -------------------------------------------------------------------------------
 -                                                                             -
 -                           R E F E R E N C E S                               -
 -                                                                             -
 -------------------------------------------------------------------------------
 
 CP2K version 2023.2, the CP2K developers group (2023).
 CP2K is freely available from https://www.cp2k.org/ .

 Kuehne,Thomas D.; Iannuzzi,Marcella; Del Ben,Mauro;
 Rybkin,Vladimir V.; Seewald,Patrick; Stein,Frederick; Laino,Teodoro;
 Khaliullin,Rustam Z.; Schuett,Ole; Schiffmann,Florian; Golze,Dorothea;
 Wilhelm,Jan; Chulkov,Sergey; Bani-Hashemian,Mohammad Hossein;
 Weber,Valery; Borstnik,Urban; Taillefumier,Mathieu;
 Jakobovits,Alice Shoshana; Lazzaro,Alfio; Pabst,Hans; Mueller,Tiziano;
 Schade,Robert; Guidon,Manuel; Andermatt,Samuel; Holmberg,Nico;
 Schenter,Gregory K.; Hehn,Anna; Bussy,Augustin; Belleflamme,Fabian;
 Tabacchi,Gloria; Gloess,Andreas; Lass,Michael; Bethune,Iain;
 Mundy,Christopher J.; Plessl,Christian; Watkins,Matt;
 VandeVondele,Joost; Krack,Matthias; Hutter,Juerg. 
 The Journal of Chemical Physics, 152 (19), (2020). 
 CP2K: An electronic structure and molecular dynamics software package -
 Quickstep: Efficient and accurate electronic structure calculations.
 https://doi.org/10.1063/5.0007045

 Yin, Wen-Jin; Krack, Matthias; Li, Xibo; Chen, Li-Zhen; Liu, Li-Min. 
 Prog. Nat. Sci., 27 (2), 283-288 (2017). 
 Periodic continuum solvation model integrated with first-principles
 calculations for solid surfaces.
 https://doi.org/10.1016/j.pnsc.2017.03.003

 Goerigk, Lars; Hansen, Andreas; Bauer, Christoph; Ehrlich, Stephan;
 Najibi, Asim; Grimme, Stefan. , 19 (48), (2017). 
 A look at the density functional theory zoo with the advanced GMTKN55 database
 for general main group thermochemistry, kinetics and noncovalent interactions.
 https://doi.org/10.1039/C7CP04913G

 Schuett, Ole; Messmer, Peter; Hutter, Juerg; VandeVondele, Joost. 
 Electronic Structure Calculations on Graphics Processing Units, John
 Wiley & Sons, Ltd, 173-190 (2016). 
 GPU-Accelerated Sparse Matrix-Matrix Multiplication for
 Linear Scaling Density Functional Theory.
 https://doi.org/10.1002/9781118670712.ch8

 Heinecke, A; Henry, G; Hutchinson, M; Pabst, H. 
 Proceedings of Intl. Supercomputing Conference, 981-991 (2016). 
 LIBXSMM: Accelerating Small Matrix Multiplications
 by Runtime Code Generation.
 https://doi.org/10.1109/SC.2016.83

 Borstnik, U; VandeVondele, J; Weber, V; Hutter, J. 
 PARALLEL COMPUTING, 40 (5-6), 47-58 (2014). 
 Sparse matrix multiplication: The distributed block-compressed sparse
 row library.
 https://doi.org/10.1016/j.parco.2014.03.012

 Hutter, J; Iannuzzi, M; Schiffmann, F; VandeVondele, J. 
 WIREs Comput Mol Sci., 4 (1), 15-25 (2014). 
 CP2K: atomistic simulations of condensed matter systems.
 https://doi.org/10.1002/wcms.1159

 Grimme, S; Ehrlich, S; Goerigk, L. 
 JOURNAL OF COMPUTATIONAL CHEMISTRY, 32, 1456 (2011). 
 Effect of the damping function in dispersion corrected density functional theory.
 https://doi.org/10.1002/jcc.21759

 Grimme, S; Antony, J; Ehrlich, S; Krieg, H. 
 JOURNAL OF CHEMICAL PHYSICS, 132 (15), 154104 (2010). 
 A consistent and accurate ab initio parametrization of density
 functional dispersion correction (DFT-D) for the 94 elements H-Pu.
 https://doi.org/10.1063/1.3382344

 Genovese, L; Deutsch, T; Goedecker, S. 
 JOURNAL OF CHEMICAL PHYSICS, 127 (5), 054704 (2007). 
 Efficient and accurate three-dimensional Poisson solver for surface
 problems.
 https://doi.org/10.1063/1.2754685

 Genovese, L; Deutsch, T; Neelov, A; Goedecker, S; Beylkin, G. 
 JOURNAL OF CHEMICAL PHYSICS, 125 (7), 074105 (2006). 
 Efficient solution of Poisson's equation with free boundary conditions.
 https://doi.org/10.1063/1.2335442

 Krack, M. 
 THEORETICAL CHEMISTRY ACCOUNTS, 114 (1-3), 145-152 (2005). 
 Pseudopotentials for H to Kr optimized for gradient-corrected
 exchange-correlation functionals.
 https://doi.org/10.1007/s00214-005-0655-y

 VandeVondele, J; Krack, M; Mohamed, F; Parrinello, M; Chassaing, T;
 Hutter, J. COMPUTER PHYSICS COMMUNICATIONS, 167 (2), 103-128 (2005). 
 QUICKSTEP: Fast and accurate density functional calculations using a
 mixed Gaussian and plane waves approach.
 https://doi.org/10.1016/j.cpc.2004.12.014

 Frigo, M; Johnson, SG. 
 PROCEEDINGS OF THE IEEE, 93 (2), 216-231 (2005). 
 The design and implementation of FFTW3.
 https://doi.org/10.1109/JPROC.2004.840301

 Iannuzzi, M; Chassaing, T; Wallman, T; Hutter, J. 
 CHIMIA, 59 (7-8), 499-503 (2005). 
 Ground and excited state density functional calculations with the
 Gaussian and augmented-plane-wave method.
 https://doi.org/10.2533/000942905777676164

 Martin,Richard L.. 
 The Journal of Chemical Physics, 118 (11), 4775-4777 (2003). 
 Natural transition orbitals.
 https://doi.org/10.1063/1.1558471

 Fattebert, JL; Gygi, F. J. Comput. Chem., 23 (6), (2002). 
 Density functional theory for efficient ab initio molecular dynamics
 simulations in solution.
 https://doi.org/10.1002/jcc.10069

 Hartwigsen, C; Goedecker, S; Hutter, J. 
 PHYSICAL REVIEW B, 58 (7), 3641-3662 (1998). 
 Relativistic separable dual-space Gaussian pseudopotentials from H to Rn.
 https://doi.org/10.1103/PhysRevB.58.3641

 Lippert, G; Hutter, J; Parrinello, M. 
 MOLECULAR PHYSICS, 92 (3), 477-487 (1997). 
 A hybrid Gaussian and plane wave density functional scheme.
 https://doi.org/10.1080/002689797170220

 Perdew, JP; Burke, K; Ernzerhof, M. 
 PHYSICAL REVIEW LETTERS, 77 (18), 3865-3868 (1996). 
 Generalized gradient approximation made simple.
 https://doi.org/10.1103/PhysRevLett.77.3865

 Goedecker, S; Teter, M; Hutter, J. 
 PHYSICAL REVIEW B, 54 (3), 1703-1710 (1996). 
 Separable dual-space Gaussian pseudopotentials.
 https://doi.org/10.1103/PhysRevB.54.1703


 -------------------------------------------------------------------------------
 -                                                                             -
 -                                T I M I N G                                  -
 -                                                                             -
 -------------------------------------------------------------------------------
 SUBROUTINE                       CALLS  ASD         SELF TIME        TOTAL TIME
                                MAXIMUM       AVERAGE  MAXIMUM  AVERAGE  MAXIMUM
 CP2K                                 1  1.0    0.155    0.244 2220.801 2220.808
 qs_energies                          1  2.0    0.000    0.004 2219.678 2219.708
 qs_energies_properties               1  3.0    0.000    0.000 1199.559 1199.588
 tddfpt                               1  4.0    0.007    0.034 1199.559 1199.588
 tddfpt_energies                      1  5.0    0.000    0.002 1199.326 1199.330
 tddfpt_davidson_solver               2  6.0    0.004    0.039 1192.302 1192.306
 tddfpt_compute_Aop_evects            7  7.0    0.000    0.000 1186.465 1186.469
 fhxc_kernel                          7  8.0    0.020    0.025 1185.022 1185.029
 pw_poisson_solve                  1042  9.3   50.297  106.059 1178.020 1179.246
 pw_transfer                      13042 11.0    2.038    2.175 1094.597 1115.589
 fft_wrap_pw1pw2                  11726 12.1    0.266    0.290 1087.266 1108.999
 fft_wrap_pw1pw2_250               7866 12.9  214.678  232.021 1051.486 1067.360
 scf_env_do_scf                       1  3.0    0.000    0.000 1011.954 1011.957
 scf_env_do_scf_inner_loop           34  4.0    0.001    0.008 1011.954 1011.957
 qs_ks_update_qs_env                 34  5.0    0.000    0.000  968.488  968.514
 rebuild_ks_matrix                   34  6.0    0.000    0.000  968.486  968.512
 qs_ks_build_kohn_sham_matrix        34  7.0    0.006    0.012  968.486  968.512
 sccs                                34  8.0   10.761   12.582  905.721  905.973
 fft3d_ps                         11726 14.1  391.987  432.373  724.925  772.047
 ps_wavelet_solve                  1042 10.3  349.384  399.911  545.579  569.422
 tddfpt_apply_xc_analytic           350  9.0    2.354    3.118  424.740  429.229
 tddfpt_apply_coulomb               350  9.0    0.007    0.008  377.553  378.374
 xc_pw_derive                      2307 11.0    0.051    0.060  361.525  368.113
 mp_alltoall_z22v                 11726 16.1  233.601  337.258  233.601  337.258
 mp_alltoall_d54                   1042 11.3  129.187  318.375  129.187  318.375
 x_to_yz                           5610 14.6   67.735   74.937  204.241  254.132
 xc_calc_2nd_deriv_analytical       350 10.0   20.849   23.106  250.051  250.942
 xc_pw_divergence                   384 10.9    0.028    0.032  241.441  247.882
 qs_rho_update_rho_low              386  8.6    0.003    0.003  243.216  243.283
 calculate_rho_elec                 386  9.6    1.120    1.208  243.213  243.281
 density_rs2pw                      386 10.6    0.035    0.038  182.487  187.764
 yz_to_x                           3800 15.6   23.695   25.720  119.754  170.073
 mp_alltoall_d11v                 19855 11.6   52.976  159.453   52.976  159.453
 integrate_v_rspace                 384  9.0    0.016    0.017  152.196  158.504
 potential_pw2rs                    384 10.0    0.187    0.223  138.433  144.723
 rs_pw_transfer                    4747 11.3    0.079    0.083  128.654  132.282
 mp_alltoall_d45                   1043 11.3   62.056  114.319   62.056  114.319
 pw_scatter_p                      6762 13.7   80.823   85.009   80.823   85.009
 pw_derive                         4365 11.1   69.756   73.112   69.756   73.112
 pw_gather_p                       4964 14.6   63.244   70.475   63.244   70.475
 grid_collocate_task_list           386 10.6   54.733   66.328   54.733   66.328
 mp_waitany                       59724 13.3   55.537   60.068   55.537   60.068
 cp2k_distribution_to_z_slices     1042 10.3   24.278   26.026   41.708   47.256
 -------------------------------------------------------------------------------

 The number of warnings for this run is : 1
 
 -------------------------------------------------------------------------------
  **** **** ******  **  PROGRAM ENDED AT                 2024-03-17 08:29:29.378
 ***** ** ***  *** **   PROGRAM RAN ON                              d3bff0fdf7a9
 **    ****   ******    PROGRAM RAN BY                                 <unknown>
 ***** **    ** ** **   PROGRAM PROCESS ID                                   538
  **** **  *******  **  PROGRAM STOPPED IN                                  /mnt
