 DBCSR| CPU Multiplication driver                                           XSMM (U)
 DBCSR| Multrec recursion limit                                              512 (U)
 DBCSR| Multiplication stack size                                           1000 (D)
 DBCSR| Maximum elements for images                                    UNLIMITED (U)
 DBCSR| Multiplicative factor virtual images                                   1 (U)
 DBCSR| Use multiplication densification                                       T (D)
 DBCSR| Multiplication size stacks                                             3 (U)
 DBCSR| Use memory pool for CPU allocation                                     F (U)
 DBCSR| Number of 3D layers                                               SINGLE (U)
 DBCSR| Use MPI memory allocation                                              F (U)
 DBCSR| Use RMA algorithm                                                      F (U)
 DBCSR| Use Communication thread                                               T (U)
 DBCSR| Communication thread load                                             83 (D)
 DBCSR| MPI: My process id                                                     0
 DBCSR| MPI: Number of processes                                              90
 DBCSR| OMP: Current number of threads                                         2
 DBCSR| OMP: Max number of threads                                             2
 DBCSR| Split modifier for TAS multiplication algorithm                  1.0E+00 (U)


  **** **** ******  **  PROGRAM STARTED AT               2024-02-27 07:17:59.244
 ***** ** ***  *** **   PROGRAM STARTED ON                          1b3a3a78178c
 **    ****   ******    PROGRAM STARTED BY                             <unknown>
 ***** **    ** ** **   PROGRAM PROCESS ID                                   538
  **** **  *******  **  PROGRAM STARTED IN                                  /mnt

 CP2K| version string:                                       CP2K version 2023.2
 CP2K| source code revision number:                                  git:65cca6c
 CP2K| cp2kflags: omp libint fftw3 libxc pexsi elpa parallel scalapack cosma qui
 CP2K|            p xsmm plumed2 spglib sirius libvori libbqb libtorch libvdwxc
 CP2K| is freely available from                            https://www.cp2k.org/
 CP2K| Program compiled at                          Wed Oct 18 11:40:41 UTC 2023
 CP2K| Program compiled on                                          633bb7bf566f
 CP2K| Program compiled for                                                local
 CP2K| Data directory path                                        /opt/cp2k/data
 CP2K| Input file name                                       4amp15pbeiso_geo.in

 GLOBAL| Force Environment number                                              1
 GLOBAL| Basis set file name                                      GTH_BASIS_SETS
 GLOBAL| Potential file name                                           POTENTIAL
 GLOBAL| MM Potential file name                                     MM_POTENTIAL
 GLOBAL| Coordinate file name                                      __STD_INPUT__
 GLOBAL| Method name                                                        CP2K
 GLOBAL| Project name                                               4amp15pbeiso
 GLOBAL| Run type                                                        GEO_OPT
 GLOBAL| FFT library                                                       FFTW3
 GLOBAL| Diagonalization library                                       ScaLAPACK
 GLOBAL| DGEMM library                                                      BLAS
 GLOBAL| Orthonormality check for eigenvectors                          DISABLED
 GLOBAL| Matrix multiplication library                                     COSMA
 GLOBAL| All-to-all communication in single precision                          F
 GLOBAL| FFTs using library dependent lengths                                  F
 GLOBAL| Grid backend                                                       AUTO
 GLOBAL| Global print level                                               MEDIUM
 GLOBAL| MPI I/O enabled                                                       T
 GLOBAL| Total number of message passing processes                            90
 GLOBAL| Number of threads for this process                                    2
 GLOBAL| This output is from process                                           0
 GLOBAL| Stack size for threads created by OpenMP (OMP_STACKSIZE)            16M
 GLOBAL| CPU model name                                            AMD EPYC 9B14
 GLOBAL| CPUID                                                              1003
 GLOBAL| Compiled for CPUID                                                    0

 *** HINT in environment.F:904 :: The compiler target flags (generic) used ***
 *** to build this binary cannot exploit all extensions of this CPU model  ***
 *** (x86_avx512). Consider compiler target flags as part of FCFLAGS and   ***
 *** CFLAGS (ARCH file).                                                   ***


 MEMORY| system memory details [Kb]
 MEMORY|                        rank 0           min           max       average
 MEMORY| MemTotal            365023376     365023376     365023376     365023376
 MEMORY| MemFree             351407152     351405104     351407152     351405126
 MEMORY| Buffers                 19432         19432         19432         19432
 MEMORY| Cached                 839228        839228        839228        839228
 MEMORY| Slab                   384900        384900        384900        384900
 MEMORY| SReclaimable            80684         80684         80684         80684
 MEMORY| MemLikelyFree       352346496     352344448     352346496     352344470


 *** Fundamental physical constants (SI units) ***

 *** Literature: B. J. Mohr and B. N. Taylor,
 ***             CODATA recommended values of the fundamental physical
 ***             constants: 2006, Web Version 5.1
 ***             http://physics.nist.gov/constants

 Speed of light in vacuum [m/s]                             2.99792458000000E+08
 Magnetic constant or permeability of vacuum [N/A**2]       1.25663706143592E-06
 Electric constant or permittivity of vacuum [F/m]          8.85418781762039E-12
 Planck constant (h) [J*s]                                  6.62606896000000E-34
 Planck constant (h-bar) [J*s]                              1.05457162825177E-34
 Elementary charge [C]                                      1.60217648700000E-19
 Electron mass [kg]                                         9.10938215000000E-31
 Electron g factor [ ]                                     -2.00231930436220E+00
 Proton mass [kg]                                           1.67262163700000E-27
 Fine-structure constant                                    7.29735253760000E-03
 Rydberg constant [1/m]                                     1.09737315685270E+07
 Avogadro constant [1/mol]                                  6.02214179000000E+23
 Boltzmann constant [J/K]                                   1.38065040000000E-23
 Atomic mass unit [kg]                                      1.66053878200000E-27
 Bohr radius [m]                                            5.29177208590000E-11

 *** Conversion factors ***

 [u] -> [a.u.]                                              1.82288848426455E+03
 [Angstrom] -> [Bohr] = [a.u.]                              1.88972613288564E+00
 [a.u.] = [Bohr] -> [Angstrom]                              5.29177208590000E-01
 [a.u.] -> [s]                                              2.41888432650478E-17
 [a.u.] -> [fs]                                             2.41888432650478E-02
 [a.u.] -> [J]                                              4.35974393937059E-18
 [a.u.] -> [N]                                              8.23872205491840E-08
 [a.u.] -> [K]                                              3.15774647902944E+05
 [a.u.] -> [kJ/mol]                                         2.62549961709828E+03
 [a.u.] -> [kcal/mol]                                       6.27509468713739E+02
 [a.u.] -> [Pa]                                             2.94210107994716E+13
 [a.u.] -> [bar]                                            2.94210107994716E+08
 [a.u.] -> [atm]                                            2.90362800883016E+08
 [a.u.] -> [eV]                                             2.72113838565563E+01
 [a.u.] -> [Hz]                                             6.57968392072181E+15
 [a.u.] -> [1/cm] (wave numbers)                            2.19474631370540E+05
 [a.u./Bohr**2] -> [1/cm]                                   5.14048714338585E+03
 

 CELL_TOP| Volume [angstrom^3]:                                     27000.000000
 CELL_TOP| Vector a [angstrom    30.000     0.000     0.000   |a| =    30.000000
 CELL_TOP| Vector b [angstrom     0.000    30.000     0.000   |b| =    30.000000
 CELL_TOP| Vector c [angstrom     0.000     0.000    30.000   |c| =    30.000000
 CELL_TOP| Angle (b,c), alpha [degree]:                                90.000000
 CELL_TOP| Angle (a,c), beta  [degree]:                                90.000000
 CELL_TOP| Angle (a,b), gamma [degree]:                                90.000000
 CELL_TOP| Numerically orthorhombic:                                         YES
 CELL_TOP| Periodicity                                                      NONE

 GENERATE|  Preliminary Number of Bonds generated:                             0
 GENERATE|  Achieved consistency in connectivity generation.

 CELL| Volume [angstrom^3]:                                         27000.000000
 CELL| Vector a [angstrom]:      30.000     0.000     0.000   |a| =    30.000000
 CELL| Vector b [angstrom]:       0.000    30.000     0.000   |b| =    30.000000
 CELL| Vector c [angstrom]:       0.000     0.000    30.000   |c| =    30.000000
 CELL| Angle (b,c), alpha [degree]:                                    90.000000
 CELL| Angle (a,c), beta  [degree]:                                    90.000000
 CELL| Angle (a,b), gamma [degree]:                                    90.000000
 CELL| Numerically orthorhombic:                                             YES
 CELL| Periodicity                                                          NONE

 CELL_REF| Volume [angstrom^3]:                                     27000.000000
 CELL_REF| Vector a [angstrom    30.000     0.000     0.000   |a| =    30.000000
 CELL_REF| Vector b [angstrom     0.000    30.000     0.000   |b| =    30.000000
 CELL_REF| Vector c [angstrom     0.000     0.000    30.000   |c| =    30.000000
 CELL_REF| Angle (b,c), alpha [degree]:                                90.000000
 CELL_REF| Angle (a,c), beta  [degree]:                                90.000000
 CELL_REF| Angle (a,b), gamma [degree]:                                90.000000
 CELL_REF| Numerically orthorhombic:                                         YES
 CELL_REF| Periodicity                                                      NONE

 *******************************************************************************
 *******************************************************************************
 **                                                                           **
 **     #####                         ##              ##                      **
 **    ##   ##            ##          ##              ##                      **
 **   ##     ##                       ##            ######                    **
 **   ##     ##  ##   ##  ##   #####  ##  ##   ####   ##    #####    #####    **
 **   ##     ##  ##   ##  ##  ##      ## ##   ##      ##   ##   ##  ##   ##   **
 **   ##  ## ##  ##   ##  ##  ##      ####     ###    ##   ######   ######    **
 **    ##  ###   ##   ##  ##  ##      ## ##      ##   ##   ##       ##        **
 **     #######   #####   ##   #####  ##  ##  ####    ##    #####   ##        **
 **           ##                                                    ##        **
 **                                                                           **
 **                                                ... make the atoms dance   **
 **                                                                           **
 **            Copyright (C) by CP2K developers group (2000-2023)             **
 **                      J. Chem. Phys. 152, 194103 (2020)                    **
 **                                                                           **
 *******************************************************************************

 DFT| Spin restricted Kohn-Sham (RKS) calculation                            RKS
 DFT| Multiplicity                                                             1
 DFT| Number of spin states                                                    1
 DFT| Charge                                                                   0
 DFT| Self-interaction correction (SIC)                                       NO
 DFT| Cutoffs: density                                              1.000000E-10
 DFT|          gradient                                             1.000000E-10
 DFT|          tau                                                  1.000000E-10
 DFT|          cutoff_smoothing_range                               0.000000E+00
 DFT| XC density smoothing                                                  NONE
 DFT| XC derivatives                                                          PW

 FUNCTIONAL| PBE:
 FUNCTIONAL| J.P.Perdew, K.Burke, M.Ernzerhof, Phys. Rev. Letter, vol. 77, n 18,
 FUNCTIONAL|  pp. 3865-3868, (1996){spin unpolarized}                           

 vdW POTENTIAL|                                                   Pair Potential
 vdW POTENTIAL|          DFT-D3 (Version 3.1)
 vdW POTENTIAL|          Potential Form: S. Grimme et al, JCP 132: 154104 (2010)
 vdW POTENTIAL|          BJ Damping: S. Grimme et al, JCC 32: 1456 (2011)
 vdW POTENTIAL|          Cutoff Radius [Bohr]:                             30.24
 vdW POTENTIAL|          s6 Scaling Factor:                               1.0000
 vdW POTENTIAL|          a1 Damping Factor:                               0.4289
 vdW POTENTIAL|          s8 Scaling Factor:                               0.7875
 vdW POTENTIAL|          a2 Damping Factor:                               4.4407
 vdW POTENTIAL|          Cutoff for CN calculation:                   0.1000E-05

 QS| Method:                                                                 GPW
 QS| Density plane wave grid type                        NON-SPHERICAL FULLSPACE
 QS| Number of grid levels:                                                    4
 QS| Density cutoff [a.u.]:                                                300.0
 QS| Multi grid cutoff [a.u.]: 1) grid level                               300.0
 QS|                           2) grid level                               100.0
 QS|                           3) grid level                                33.3
 QS|                           4) grid level                                11.1
 QS| Grid level progression factor:                                          3.0
 QS| Relative density cutoff [a.u.]:                                        40.0
 QS| Interaction thresholds: eps_pgf_orb:                                1.0E-06
 QS|                         eps_filter_matrix:                          0.0E+00
 QS|                         eps_core_charge:                            1.0E-14
 QS|                         eps_rho_gspace:                             1.0E-12
 QS|                         eps_rho_rspace:                             1.0E-12
 QS|                         eps_gvg_rspace:                             1.0E-06
 QS|                         eps_ppl:                                    1.0E-02
 QS|                         eps_ppnl:                                   1.0E-08


 ATOMIC KIND INFORMATION

  1. Atomic kind: O                                     Number of atoms:       3

     Orbital Basis Set                                               TZVP-GTH-q6

       Number of orbital shell sets:                                           2
       Number of orbital shells:                                               7
       Number of primitive Cartesian functions:                                6
       Number of Cartesian basis functions:                                   18
       Number of spherical basis functions:                                   17
       Norm type:                                                              2

       Normalised Cartesian orbitals:

                        Set   Shell   Orbital            Exponent    Coefficient

                          1       1    2s               10.267442       0.404544
                                                         3.748050       0.199889
                                                         1.330834      -0.336302
                                                         0.455680      -0.246356
                                                         0.146292      -0.028287

                          1       2    3s               10.267442       0.000000
                                                         3.748050       0.000000
                                                         1.330834       0.000000
                                                         0.455680       0.395280
                                                         0.146292       0.000000

                          1       3    4s               10.267442       0.000000
                                                         3.748050       0.000000
                                                         1.330834       0.000000
                                                         0.455680       0.000000
                                                         0.146292       0.168588

                          1       4    3px              10.267442      -1.561025
                                                         3.748050      -1.394275
                                                         1.330834      -0.754014
                                                         0.455680      -0.224400
                                                         0.146292      -0.029841
                          1       4    3py              10.267442      -1.561025
                                                         3.748050      -1.394275
                                                         1.330834      -0.754014
                                                         0.455680      -0.224400
                                                         0.146292      -0.029841
                          1       4    3pz              10.267442      -1.561025
                                                         3.748050      -1.394275
                                                         1.330834      -0.754014
                                                         0.455680      -0.224400
                                                         0.146292      -0.029841

                          1       5    4px              10.267442       0.000000
                                                         3.748050       0.000000
                                                         1.330834       0.000000
                                                         0.455680       0.533661
                                                         0.146292       0.000000
                          1       5    4py              10.267442       0.000000
                                                         3.748050       0.000000
                                                         1.330834       0.000000
                                                         0.455680       0.533661
                                                         0.146292       0.000000
                          1       5    4pz              10.267442       0.000000
                                                         3.748050       0.000000
                                                         1.330834       0.000000
                                                         0.455680       0.533661
                                                         0.146292       0.000000

                          1       6    5px              10.267442       0.000000
                                                         3.748050       0.000000
                                                         1.330834       0.000000
                                                         0.455680       0.000000
                                                         0.146292       0.128963
                          1       6    5py              10.267442       0.000000
                                                         3.748050       0.000000
                                                         1.330834       0.000000
                                                         0.455680       0.000000
                                                         0.146292       0.128963
                          1       6    5pz              10.267442       0.000000
                                                         3.748050       0.000000
                                                         1.330834       0.000000
                                                         0.455680       0.000000
                                                         0.146292       0.128963

                          2       1    3dx2              1.185000       2.215218
                          2       1    3dxy              1.185000       3.836871
                          2       1    3dxz              1.185000       3.836871
                          2       1    3dy2              1.185000       2.215218
                          2       1    3dyz              1.185000       3.836871
                          2       1    3dz2              1.185000       2.215218

       Atomic covalent radius [Angstrom]:                                  0.730

       Atomic van der Waals radius [Angstrom]:                             1.520

     GTH Potential information for                                       GTH-PBE

       Description:                       Goedecker-Teter-Hutter pseudopotential
                                           Goedecker et al., PRB 54, 1703 (1996)
                                          Hartwigsen et al., PRB 58, 3641 (1998)
                                                      Krack, TCA 114, 145 (2005)

       Gaussian exponent of the core charge distribution:               8.360253
       Electronic configuration (s p d ...):                               2   4

       Parameters of the local part of the GTH pseudopotential:

                          rloc        C1          C2          C3          C4
                        0.244554  -16.667215    2.487311

       Parameters of the non-local part of the GTH pseudopotential:

                   l      r(l)      h(i,j,l)

                   0    0.220956   18.337458
                   1    0.211332

  2. Atomic kind: N                                     Number of atoms:       1

     Orbital Basis Set                                               TZVP-GTH-q5

       Number of orbital shell sets:                                           2
       Number of orbital shells:                                               7
       Number of primitive Cartesian functions:                                6
       Number of Cartesian basis functions:                                   18
       Number of spherical basis functions:                                   17
       Norm type:                                                              2

       Normalised Cartesian orbitals:

                        Set   Shell   Orbital            Exponent    Coefficient

                          1       1    2s                7.622745       0.321703
                                                         2.797061       0.161118
                                                         0.990977      -0.264934
                                                         0.341731      -0.199987
                                                         0.111682      -0.023066

                          1       2    3s                7.622745       0.000000
                                                         2.797061       0.000000
                                                         0.990977       0.000000
                                                         0.341731       0.318547
                                                         0.111682       0.000000

                          1       3    4s                7.622745       0.000000
                                                         2.797061       0.000000
                                                         0.990977       0.000000
                                                         0.341731       0.000000
                                                         0.111682       0.137689

                          1       4    3px               7.622745      -1.014025
                                                         2.797061      -0.927144
                                                         0.990977      -0.514975
                                                         0.341731      -0.158623
                                                         0.111682      -0.021774
                          1       4    3py               7.622745      -1.014025
                                                         2.797061      -0.927144
                                                         0.990977      -0.514975
                                                         0.341731      -0.158623
                                                         0.111682      -0.021774
                          1       4    3pz               7.622745      -1.014025
                                                         2.797061      -0.927144
                                                         0.990977      -0.514975
                                                         0.341731      -0.158623
                                                         0.111682      -0.021774

                          1       5    4px               7.622745       0.000000
                                                         2.797061       0.000000
                                                         0.990977       0.000000
                                                         0.341731       0.372431
                                                         0.111682       0.000000
                          1       5    4py               7.622745       0.000000
                                                         2.797061       0.000000
                                                         0.990977       0.000000
                                                         0.341731       0.372431
                                                         0.111682       0.000000
                          1       5    4pz               7.622745       0.000000
                                                         2.797061       0.000000
                                                         0.990977       0.000000
                                                         0.341731       0.372431
                                                         0.111682       0.000000

                          1       6    5px               7.622745       0.000000
                                                         2.797061       0.000000
                                                         0.990977       0.000000
                                                         0.341731       0.000000
                                                         0.111682       0.092028
                          1       6    5py               7.622745       0.000000
                                                         2.797061       0.000000
                                                         0.990977       0.000000
                                                         0.341731       0.000000
                                                         0.111682       0.092028
                          1       6    5pz               7.622745       0.000000
                                                         2.797061       0.000000
                                                         0.990977       0.000000
                                                         0.341731       0.000000
                                                         0.111682       0.092028

                          2       1    3dx2              0.817000       1.155575
                          2       1    3dxy              0.817000       2.001514
                          2       1    3dxz              0.817000       2.001514
                          2       1    3dy2              0.817000       1.155575
                          2       1    3dyz              0.817000       2.001514
                          2       1    3dz2              0.817000       1.155575

       Atomic covalent radius [Angstrom]:                                  0.750

       Atomic van der Waals radius [Angstrom]:                             1.550

     GTH Potential information for                                       GTH-PBE

       Description:                       Goedecker-Teter-Hutter pseudopotential
                                           Goedecker et al., PRB 54, 1703 (1996)
                                          Hartwigsen et al., PRB 58, 3641 (1998)
                                                      Krack, TCA 114, 145 (2005)

       Gaussian exponent of the core charge distribution:               6.208322
       Electronic configuration (s p d ...):                               2   3

       Parameters of the local part of the GTH pseudopotential:

                          rloc        C1          C2          C3          C4
                        0.283791  -12.415226    1.868096

       Parameters of the non-local part of the GTH pseudopotential:

                   l      r(l)      h(i,j,l)

                   0    0.255405   13.630263
                   1    0.245495

  3. Atomic kind: C                                     Number of atoms:      24

     Orbital Basis Set                                               TZVP-GTH-q4

       Number of orbital shell sets:                                           2
       Number of orbital shells:                                               7
       Number of primitive Cartesian functions:                                6
       Number of Cartesian basis functions:                                   18
       Number of spherical basis functions:                                   17
       Norm type:                                                              2

       Normalised Cartesian orbitals:

                        Set   Shell   Orbital            Exponent    Coefficient

                          1       1    2s                5.368566       0.245056
                                                         1.983069       0.124102
                                                         0.697835      -0.198350
                                                         0.243097      -0.156359
                                                         0.081287      -0.018192

                          1       2    3s                5.368566       0.000000
                                                         1.983069       0.000000
                                                         0.697835       0.000000
                                                         0.243097       0.246743
                                                         0.081287       0.000000

                          1       3    4s                5.368566       0.000000
                                                         1.983069       0.000000
                                                         0.697835       0.000000
                                                         0.243097       0.000000
                                                         0.081287       0.108499

                          1       4    3px               5.368566      -0.595193
                                                         1.983069      -0.567909
                                                         0.697835      -0.325466
                                                         0.243097      -0.105296
                                                         0.081287      -0.015205
                          1       4    3py               5.368566      -0.595193
                                                         1.983069      -0.567909
                                                         0.697835      -0.325466
                                                         0.243097      -0.105296
                                                         0.081287      -0.015205
                          1       4    3pz               5.368566      -0.595193
                                                         1.983069      -0.567909
                                                         0.697835      -0.325466
                                                         0.243097      -0.105296
                                                         0.081287      -0.015205

                          1       5    4px               5.368566       0.000000
                                                         1.983069       0.000000
                                                         0.697835       0.000000
                                                         0.243097       0.243312
                                                         0.081287       0.000000
                          1       5    4py               5.368566       0.000000
                                                         1.983069       0.000000
                                                         0.697835       0.000000
                                                         0.243097       0.243312
                                                         0.081287       0.000000
                          1       5    4pz               5.368566       0.000000
                                                         1.983069       0.000000
                                                         0.697835       0.000000
                                                         0.243097       0.243312
                                                         0.081287       0.000000

                          1       6    5px               5.368566       0.000000
                                                         1.983069       0.000000
                                                         0.697835       0.000000
                                                         0.243097       0.000000
                                                         0.081287       0.061868
                          1       6    5py               5.368566       0.000000
                                                         1.983069       0.000000
                                                         0.697835       0.000000
                                                         0.243097       0.000000
                                                         0.081287       0.061868
                          1       6    5pz               5.368566       0.000000
                                                         1.983069       0.000000
                                                         0.697835       0.000000
                                                         0.243097       0.000000
                                                         0.081287       0.061868

                          2       1    3dx2              0.550000       0.578155
                          2       1    3dxy              0.550000       1.001394
                          2       1    3dxz              0.550000       1.001394
                          2       1    3dy2              0.550000       0.578155
                          2       1    3dyz              0.550000       1.001394
                          2       1    3dz2              0.550000       0.578155

       Atomic covalent radius [Angstrom]:                                  0.770

       Atomic van der Waals radius [Angstrom]:                             1.700

     GTH Potential information for                                       GTH-PBE

       Description:                       Goedecker-Teter-Hutter pseudopotential
                                           Goedecker et al., PRB 54, 1703 (1996)
                                          Hartwigsen et al., PRB 58, 3641 (1998)
                                                      Krack, TCA 114, 145 (2005)

       Gaussian exponent of the core charge distribution:               4.364419
       Electronic configuration (s p d ...):                               2   2

       Parameters of the local part of the GTH pseudopotential:

                          rloc        C1          C2          C3          C4
                        0.338471   -8.803674    1.339211

       Parameters of the non-local part of the GTH pseudopotential:

                   l      r(l)      h(i,j,l)

                   0    0.302576    9.622487
                   1    0.291507

  4. Atomic kind: H                                     Number of atoms:      21

     Orbital Basis Set                                               TZVP-GTH-q1

       Number of orbital shell sets:                                           2
       Number of orbital shells:                                               4
       Number of primitive Cartesian functions:                                6
       Number of Cartesian basis functions:                                    6
       Number of spherical basis functions:                                    6
       Norm type:                                                              2

       Normalised Cartesian orbitals:

                        Set   Shell   Orbital            Exponent    Coefficient

                          1       1    1s               10.882724      -0.071340
                                                         3.096875      -0.104410
                                                         0.987452      -0.135375
                                                         0.345069      -0.133923
                                                         0.149269      -0.073092

                          1       2    2s               10.882724       0.000000
                                                         3.096875       0.000000
                                                         0.987452       0.000000
                                                         0.345069       0.320878
                                                         0.149269       0.000000

                          1       3    3s               10.882724       0.000000
                                                         3.096875       0.000000
                                                         0.987452       0.000000
                                                         0.345069       0.000000
                                                         0.149269       0.171154

                          2       1    2px               0.727000       0.956881
                          2       1    2py               0.727000       0.956881
                          2       1    2pz               0.727000       0.956881

       Atomic covalent radius [Angstrom]:                                  0.320

       Atomic van der Waals radius [Angstrom]:                             1.090

     GTH Potential information for                                       GTH-PBE

       Description:                       Goedecker-Teter-Hutter pseudopotential
                                           Goedecker et al., PRB 54, 1703 (1996)
                                          Hartwigsen et al., PRB 58, 3641 (1998)
                                                      Krack, TCA 114, 145 (2005)

       Gaussian exponent of the core charge distribution:              12.500000
       Electronic configuration (s p d ...):                                   1

       Parameters of the local part of the GTH pseudopotential:

                          rloc        C1          C2          C3          C4
                        0.200000   -4.178900    0.724463


 MOLECULE KIND INFORMATION


 All atoms are their own molecule, skipping detailed information


 TOTAL NUMBERS AND MAXIMUM NUMBERS

  Total number of            - Atomic kinds:                                   4
                             - Atoms:                                         49
                             - Shell sets:                                    98
                             - Shells:                                       280
                             - Primitive Cartesian functions:                294
                             - Cartesian basis functions:                    630
                             - Spherical basis functions:                    602

  Maximum angular momentum of- Orbital basis functions:                        2
                             - Local part of the GTH pseudopotential:          2
                             - Non-local part of the GTH pseudopotential:      0


 MODULE QUICKSTEP: ATOMIC COORDINATES IN ANGSTROM

   Atom Kind Element         X             Y             Z       Z(eff)     Mass
      1    1 O     8     16.682263     13.802507     12.245501   6.0000  15.9994
      2    1 O     8     21.111916      8.341298     13.726991   6.0000  15.9994
      3    1 O     8      8.698519     21.323478     14.600979   6.0000  15.9994
      4    2 N     7     13.754741     18.353813     15.580249   5.0000  14.0067
      5    3 C     6     19.880132     11.726593     15.763794   4.0000  12.0107
      6    4 H     1     19.556647     12.620461     16.281746   1.0000   1.0079
      7    3 C     6     20.799972     10.887564     16.353532   4.0000  12.0107
      8    4 H     1     21.190503     11.123736     17.336828   1.0000   1.0079
      9    3 C     6     21.245891      9.734883     15.711293   4.0000  12.0107
     10    4 H     1     21.968674      9.096136     16.200467   1.0000   1.0079
     11    3 C     6     20.755145      9.429441     14.447607   4.0000  12.0107
     12    3 C     6     19.829670     10.278707     13.845933   4.0000  12.0107
     13    4 H     1     19.461361     10.025016     12.858432   1.0000   1.0079
     14    3 C     6     19.378725     11.425766     14.489473   4.0000  12.0107
     15    3 C     6     18.404675     12.259353     13.799919   4.0000  12.0107
     16    4 H     1     18.161018     11.973243     12.779300   1.0000   1.0079
     17    3 C     6     17.770561     13.335153     14.280508   4.0000  12.0107
     18    4 H     1     17.950634     13.685013     15.288642   1.0000   1.0079
     19    3 C     6     16.823315     14.079453     13.424313   4.0000  12.0107
     20    3 C     6     16.043600     15.196509     14.026879   4.0000  12.0107
     21    3 C     6     15.379094     16.066884     13.162640   4.0000  12.0107
     22    4 H     1     15.479202     15.900542     12.096822   1.0000   1.0079
     23    3 C     6     14.623117     17.112533     13.649196   4.0000  12.0107
     24    4 H     1     14.147890     17.805100     12.963914   1.0000   1.0079
     25    3 C     6     14.494452     17.309828     15.028985   4.0000  12.0107
     26    3 C     6     15.174690     16.454725     15.896571   4.0000  12.0107
     27    4 H     1     15.086522     16.622049     16.963214   1.0000   1.0079
     28    3 C     6     15.929688     15.409264     15.401426   4.0000  12.0107
     29    4 H     1     16.419909     14.746174     16.103122   1.0000   1.0079
     30    3 C     6     12.636889     18.670035     15.064578   4.0000  12.0107
     31    4 H     1     12.210181     18.101091     14.227649   1.0000   1.0079
     32    3 C     6     11.828631     19.786622     15.547235   4.0000  12.0107
     33    3 C     6     10.638416     20.070873     14.892938   4.0000  12.0107
     34    4 H     1     10.316239     19.476821     14.044520   1.0000   1.0079
     35    3 C     6      9.832779     21.126995     15.311952   4.0000  12.0107
     36    3 C     6     10.225668     21.895524     16.401198   4.0000  12.0107
     37    4 H     1      9.616903     22.719129     16.749214   1.0000   1.0079
     38    3 C     6     11.421015     21.601611     17.054565   4.0000  12.0107
     39    4 H     1     11.716088     22.208182     17.903178   1.0000   1.0079
     40    3 C     6     12.225680     20.562639     16.640908   4.0000  12.0107
     41    4 H     1     13.155578     20.328670     17.142657   1.0000   1.0079
     42    3 C     6     22.051689      7.458904     14.295895   4.0000  12.0107
     43    4 H     1     22.197785      6.662554     13.568508   1.0000   1.0079
     44    4 H     1     21.681867      7.027443     15.231998   1.0000   1.0079
     45    4 H     1     23.009123      7.957208     14.480895   1.0000   1.0079
     46    3 C     6      7.837921     22.359924     15.014849   4.0000  12.0107
     47    4 H     1      6.990877     22.340587     14.331705   1.0000   1.0079
     48    4 H     1      8.327517     23.337446     14.953039   1.0000   1.0079
     49    4 H     1      7.480167     22.198707     16.037138   1.0000   1.0079



 SCF PARAMETERS         Density guess:                                    ATOMIC
                        --------------------------------------------------------
                        max_scf:                                             128
                        max_scf_history:                                       0
                        max_diis:                                              4
                        --------------------------------------------------------
                        eps_scf:                                        1.00E-06
                        eps_scf_history:                                0.00E+00
                        eps_diis:                                       1.00E-01
                        eps_eigval:                                     1.00E-05
                        --------------------------------------------------------
                        level_shift [a.u.]:                             0.000000
                        --------------------------------------------------------
                        Mixing method:                            BROYDEN_MIXING
                                                charge density mixing in g-space
                        --------------------------------------------------------
                        No outer SCF

 PW_GRID| Information for grid number                                          1
 PW_GRID| Grid distributed over                                    90 processors
 PW_GRID| Real space group dimensions                                    90    1
 PW_GRID| the grid is blocked:                                                NO
 PW_GRID| Cutoff [a.u.]                                                    300.0
 PW_GRID| spherical cutoff:                                                   NO
 PW_GRID|   Bounds   1           -225     224                Points:         450
 PW_GRID|   Bounds   2           -225     224                Points:         450
 PW_GRID|   Bounds   3           -225     224                Points:         450
 PW_GRID| Volume element (a.u.^3)  0.2000E-02     Volume (a.u.^3)    182205.0337
 PW_GRID| Grid span                                                    FULLSPACE
 PW_GRID|   Distribution                         Average         Max         Min
 PW_GRID|   G-Vectors                          1012500.0     1012500     1012500
 PW_GRID|   G-Rays                                2250.0        2250        2250
 PW_GRID|   Real Space Points                  1012500.0     1012500     1012500

 PW_GRID| Information for grid number                                          2
 PW_GRID| Number of the reference grid                                         1
 PW_GRID| Grid distributed over                                    90 processors
 PW_GRID| Real space group dimensions                                    90    1
 PW_GRID| the grid is blocked:                                                NO
 PW_GRID| Cutoff [a.u.]                                                    100.0
 PW_GRID| spherical cutoff:                                                   NO
 PW_GRID|   Bounds   1           -128     127                Points:         256
 PW_GRID|   Bounds   2           -128     127                Points:         256
 PW_GRID|   Bounds   3           -128     127                Points:         256
 PW_GRID| Volume element (a.u.^3)  0.1086E-01     Volume (a.u.^3)    182205.0337
 PW_GRID| Grid span                                                    FULLSPACE
 PW_GRID|   Distribution                         Average         Max         Min
 PW_GRID|   G-Vectors                           186413.5      186880      185856
 PW_GRID|   G-Rays                                 728.2         730         726
 PW_GRID|   Real Space Points                   186413.5      196608      131072

 PW_GRID| Information for grid number                                          3
 PW_GRID| Number of the reference grid                                         1
 PW_GRID| Grid distributed over                                    90 processors
 PW_GRID| Real space group dimensions                                    90    1
 PW_GRID| the grid is blocked:                                                NO
 PW_GRID| Cutoff [a.u.]                                                     33.3
 PW_GRID| spherical cutoff:                                                   NO
 PW_GRID|   Bounds   1            -75      74                Points:         150
 PW_GRID|   Bounds   2            -75      74                Points:         150
 PW_GRID|   Bounds   3            -75      74                Points:         150
 PW_GRID| Volume element (a.u.^3)  0.5399E-01     Volume (a.u.^3)    182205.0337
 PW_GRID| Grid span                                                    FULLSPACE
 PW_GRID|   Distribution                         Average         Max         Min
 PW_GRID|   G-Vectors                            37500.0       37650       37350
 PW_GRID|   G-Rays                                 250.0         251         249
 PW_GRID|   Real Space Points                    37500.0       45000       22500

 PW_GRID| Information for grid number                                          4
 PW_GRID| Number of the reference grid                                         1
 PW_GRID| Grid distributed over                                    90 processors
 PW_GRID| Real space group dimensions                                    90    1
 PW_GRID| the grid is blocked:                                                NO
 PW_GRID| Cutoff [a.u.]                                                     11.1
 PW_GRID| spherical cutoff:                                                   NO
 PW_GRID|   Bounds   1            -45      44                Points:          90
 PW_GRID|   Bounds   2            -45      44                Points:          90
 PW_GRID|   Bounds   3            -45      44                Points:          90
 PW_GRID| Volume element (a.u.^3)  0.2499         Volume (a.u.^3)    182205.0337
 PW_GRID| Grid span                                                    FULLSPACE
 PW_GRID|   Distribution                         Average         Max         Min
 PW_GRID|   G-Vectors                             8100.0        8370        7920
 PW_GRID|   G-Rays                                  90.0          93          88
 PW_GRID|   Real Space Points                     8100.0        8100        8100

 POISSON| Solver                                                         WAVELET
 POISSON| Wavelet| Scaling function                                           40
 POISSON| Periodicity                                                       NONE

 RS_GRID| Information for grid number                                          1
 RS_GRID|   Bounds   1           -225     224                Points:         450
 RS_GRID|   Bounds   2           -225     224                Points:         450
 RS_GRID|   Bounds   3           -225     224                Points:         450
 RS_GRID| Real space distribution over                                  3 groups
 RS_GRID| Real space distribution along direction                              1
 RS_GRID| Border size                                                         31
 RS_GRID| Real space distribution over                                  5 groups
 RS_GRID| Real space distribution along direction                              2
 RS_GRID| Border size                                                         31
 RS_GRID| Real space distribution over                                  6 groups
 RS_GRID| Real space distribution along direction                              3
 RS_GRID| Border size                                                         31
 RS_GRID|   Distribution                         Average         Max         Min
 RS_GRID|   Planes                                 212.0         212         212
 RS_GRID|   Distribution                         Average         Max         Min
 RS_GRID|   Planes                                 152.0         152         152
 RS_GRID|   Distribution                         Average         Max         Min
 RS_GRID|   Planes                                 137.0         137         137

 RS_GRID| Information for grid number                                          2
 RS_GRID|   Bounds   1           -128     127                Points:         256
 RS_GRID|   Bounds   2           -128     127                Points:         256
 RS_GRID|   Bounds   3           -128     127                Points:         256
 RS_GRID| Real space distribution over                                  3 groups
 RS_GRID| Real space distribution along direction                              1
 RS_GRID| Border size                                                         31
 RS_GRID| Real space distribution over                                  5 groups
 RS_GRID| Real space distribution along direction                              2
 RS_GRID| Border size                                                         31
 RS_GRID| Real space distribution over                                  6 groups
 RS_GRID| Real space distribution along direction                              3
 RS_GRID| Border size                                                         31
 RS_GRID|   Distribution                         Average         Max         Min
 RS_GRID|   Planes                                 147.3         148         147
 RS_GRID|   Distribution                         Average         Max         Min
 RS_GRID|   Planes                                 113.2         114         113
 RS_GRID|   Distribution                         Average         Max         Min
 RS_GRID|   Planes                                 104.7         105         104

 RS_GRID| Information for grid number                                          3
 RS_GRID|   Bounds   1            -75      74                Points:         150
 RS_GRID|   Bounds   2            -75      74                Points:         150
 RS_GRID|   Bounds   3            -75      74                Points:         150
 RS_GRID| Real space fully replicated
 RS_GRID| Group size                                                           1

 RS_GRID| Information for grid number                                          4
 RS_GRID|   Bounds   1            -45      44                Points:          90
 RS_GRID|   Bounds   2            -45      44                Points:          90
 RS_GRID|   Bounds   3            -45      44                Points:          90
 RS_GRID| Real space fully replicated
 RS_GRID| Group size                                                           1

 *******************************************************************************
 ***                     STARTING GEOMETRY OPTIMIZATION                      ***
 ***                                 L-BFGS                                  ***
 *******************************************************************************

 --------------------------
 OPTIMIZATION STEP:      1
 --------------------------

 Number of electrons:                                                        140
 Number of occupied orbitals:                                                 70
 Number of molecular orbitals:                                                70

 Number of orbital functions:                                                602
 Number of independent orbital functions:                                    602

 Extrapolation method: initial_guess

 Atomic guess: The first density matrix is obtained in terms of atomic orbitals
               and electronic configurations assigned to each atomic kind

 Guess for atomic kind: O

 Electronic structure
    Total number of core electrons                                          2.00
    Total number of valence electrons                                       6.00
    Total number of electrons                                               8.00
    Multiplicity                                                   not specified
    S   [  2.00] 2.00
    P      4.00


 *******************************************************************************
                  Iteration          Convergence                     Energy [au]
 *******************************************************************************
                          1        0.577491                     -15.568616633298
                          2        0.659429                     -15.574385699476
                          3        0.252248E-01                 -15.656217861375
                          4        0.156627E-02                 -15.656397101845
                          5        0.161710E-04                 -15.656397459300
                          6        0.346702E-06                 -15.656397459369

 Energy components [Hartree]           Total Energy ::          -15.656397459369
                                        Band Energy ::           -3.001886830830
                                     Kinetic Energy ::           11.780460877478
                                   Potential Energy ::          -27.436858336847
                                      Virial (-V/T) ::            2.329014002271
                                        Core Energy ::          -26.138300535672
                                          XC Energy ::           -3.153767183935
                                     Coulomb Energy ::           13.635670260237
                       Total Pseudopotential Energy ::          -37.953932103637
                       Local Pseudopotential Energy ::          -39.253303299158
                    Nonlocal Pseudopotential Energy ::            1.299371195522
                                        Confinement ::            0.351706904867

 Orbital energies  State     L     Occupation   Energy[a.u.]          Energy[eV]

                       1     0          2.000      -0.864888          -23.534800

                       1     1          4.000      -0.318028           -8.653974


 Total Electron Density at R=0:                                         0.000125

 Guess for atomic kind: N

 Electronic structure
    Total number of core electrons                                          2.00
    Total number of valence electrons                                       5.00
    Total number of electrons                                               7.00
    Multiplicity                                                   not specified
    S   [  2.00] 2.00
    P      3.00


 *******************************************************************************
                  Iteration          Convergence                     Energy [au]
 *******************************************************************************
                          1        0.271988                      -9.512616220151
                          2        0.247955                      -9.522554716740
                          3        0.504788E-02                  -9.546164505587
                          4        0.458466E-03                  -9.546178122964
                          5        0.244989E-05                  -9.546178176956
                          6        0.114677E-05                  -9.546178176959
                          7        0.269739E-08                  -9.546178176959

 Energy components [Hartree]           Total Energy ::           -9.546178176959
                                        Band Energy ::           -2.056052167563
                                     Kinetic Energy ::            6.750514589450
                                   Potential Energy ::          -16.296692766410
                                      Virial (-V/T) ::            2.414140811114
                                        Core Energy ::          -15.541752718363
                                          XC Energy ::           -2.162895801542
                                     Coulomb Energy ::            8.158470342945
                       Total Pseudopotential Energy ::          -22.329540620284
                       Local Pseudopotential Energy ::          -23.278432410601
                    Nonlocal Pseudopotential Energy ::            0.948891790316
                                        Confinement ::            0.372733124714

 Orbital energies  State     L     Occupation   Energy[a.u.]          Energy[eV]

                       1     0          2.000      -0.663798          -18.062862

                       1     1          3.000      -0.242819           -6.607433


 Total Electron Density at R=0:                                         0.000098

 Guess for atomic kind: C

 Electronic structure
    Total number of core electrons                                          2.00
    Total number of valence electrons                                       4.00
    Total number of electrons                                               6.00
    Multiplicity                                                   not specified
    S   [  2.00] 2.00
    P      2.00


 *******************************************************************************
                  Iteration          Convergence                     Energy [au]
 *******************************************************************************
                          1        0.989032E-01                  -5.274804028878
                          2        0.626412E-01                  -5.279859793703
                          3        0.811567E-03                  -5.283752722279
                          4        0.832201E-04                  -5.283753018164
                          5        0.104768E-06                  -5.283753025329

 Energy components [Hartree]           Total Energy ::           -5.283753025329
                                        Band Energy ::           -1.317239350806
                                     Kinetic Energy ::            3.389251109490
                                   Potential Energy ::           -8.673004134819
                                      Virial (-V/T) ::            2.558973606451
                                        Core Energy ::           -8.295157719552
                                          XC Energy ::           -1.377263451845
                                     Coulomb Energy ::            4.388668146068
                       Total Pseudopotential Energy ::          -11.718697935603
                       Local Pseudopotential Energy ::          -12.368442815308
                    Nonlocal Pseudopotential Energy ::            0.649744879704
                                        Confinement ::            0.342891065612

 Orbital energies  State     L     Occupation   Energy[a.u.]          Energy[eV]

                       1     0          2.000      -0.484434          -13.182123

                       1     1          2.000      -0.174186           -4.739829


 Total Electron Density at R=0:                                         0.000068

 Guess for atomic kind: H

 Electronic structure
    Total number of core electrons                                          0.00
    Total number of valence electrons                                       1.00
    Total number of electrons                                               1.00
    Multiplicity                                                   not specified
    S      1.00


 *******************************************************************************
                  Iteration          Convergence                     Energy [au]
 *******************************************************************************
                          1        0.440266E-02                  -0.423513531970
                          2        0.325828E-03                  -0.423525175186
                          3        0.252148E-04                  -0.423525335541
                          4        0.637775E-08                  -0.423525336420

 Energy components [Hartree]           Total Energy ::           -0.423525336420
                                        Band Energy ::           -0.195262559383
                                     Kinetic Energy ::            0.470173284674
                                   Potential Energy ::           -0.893698621094
                                      Virial (-V/T) ::            1.900785625696
                                        Core Energy ::           -0.479699819139
                                          XC Energy ::           -0.247097449670
                                     Coulomb Energy ::            0.303271932388
                       Total Pseudopotential Energy ::           -0.967738859557
                       Local Pseudopotential Energy ::           -0.967738859557
                    Nonlocal Pseudopotential Energy ::            0.000000000000
                                        Confinement ::            0.178657557441

 Orbital energies  State     L     Occupation   Energy[a.u.]          Energy[eV]

                       1     0          1.000      -0.195263           -5.313364


 Total Electron Density at R=0:                                         0.240075
 Re-scaling the density matrix to get the right number of electrons
                  # Electrons              Trace(P)               Scaling factor
                          140               140.000                        1.000


 SCF WAVEFUNCTION OPTIMIZATION

  Step     Update method      Time    Convergence         Total energy    Change
  ------------------------------------------------------------------------------
     1 NoMix/Diag. 0.40E+00    5.3     2.16571123      -205.8056566908 -2.06E+02
     2 Broy./Diag. 0.40E+00    5.2     0.51819668      -189.0913673827  1.67E+01
     3 Broy./Diag. 0.40E+00    5.3     0.36304670      -201.4834710377 -1.24E+01
     4 Broy./Diag. 0.40E+00    5.2     0.19785809      -205.9437600417 -4.46E+00
     5 Broy./Diag. 0.40E+00    5.4     0.08205139      -207.0587417146 -1.11E+00
     6 Broy./Diag. 0.40E+00    5.4     0.02894817      -206.8192985272  2.39E-01
     7 Broy./Diag. 0.40E+00    5.4     0.02504554      -206.7908718996  2.84E-02
     8 Broy./Diag. 0.40E+00    5.6     0.03879175      -206.8221682252 -3.13E-02
     9 Broy./Diag. 0.40E+00    5.8     0.04794355      -206.8939575247 -7.18E-02
    10 Broy./Diag. 0.40E+00    5.8     0.04985030      -206.9547321012 -6.08E-02
    11 Broy./Diag. 0.40E+00    5.8     0.03590900      -206.9679678288 -1.32E-02
    12 Broy./Diag. 0.40E+00    5.8     0.03292899      -206.9608192586  7.15E-03
    13 Broy./Diag. 0.40E+00    5.7     0.01183207      -206.9590484984  1.77E-03
    14 Broy./Diag. 0.40E+00    5.8     0.00542045      -206.9604107238 -1.36E-03
    15 Broy./Diag. 0.40E+00    5.7     0.00212787      -206.9609670332 -5.56E-04
    16 Broy./Diag. 0.40E+00    5.8     0.00150485      -206.9613175214 -3.50E-04
    17 Broy./Diag. 0.40E+00    5.7     0.00131972      -206.9618381572 -5.21E-04
    18 Broy./Diag. 0.40E+00    5.6     0.00116878      -206.9617069234  1.31E-04
    19 Broy./Diag. 0.40E+00    5.8     0.00075162      -206.9612809456  4.26E-04
    20 Broy./Diag. 0.40E+00    5.7     0.00066792      -206.9607554295  5.26E-04
    21 Broy./Diag. 0.40E+00    5.9     0.00033510      -206.9607591576 -3.73E-06
    22 Broy./Diag. 0.40E+00    5.7     0.00016174      -206.9610623761 -3.03E-04
    23 Broy./Diag. 0.40E+00    5.7     0.00019114      -206.9612658155 -2.03E-04
    24 Broy./Diag. 0.40E+00    5.7     0.00008207      -206.9612973532 -3.15E-05
    25 Broy./Diag. 0.40E+00    5.8     0.00006683      -206.9612449631  5.24E-05
    26 Broy./Diag. 0.40E+00    5.8     0.00005628      -206.9612857305 -4.08E-05
    27 Broy./Diag. 0.40E+00    5.8     0.00005393      -206.9613331591 -4.74E-05
    28 Broy./Diag. 0.40E+00    5.7     0.00002784      -206.9613322510  9.08E-07
    29 Broy./Diag. 0.40E+00    5.7     0.00001596      -206.9613201530  1.21E-05
    30 Broy./Diag. 0.40E+00    5.8     0.00002302      -206.9612893685  3.08E-05
    31 Broy./Diag. 0.40E+00    5.7     0.00002597      -206.9612818576  7.51E-06
    32 Broy./Diag. 0.40E+00    5.8     0.00002042      -206.9612814431  4.15E-07
    33 Broy./Diag. 0.40E+00    5.8     0.00002101      -206.9612812175  2.26E-07
    34 Broy./Diag. 0.40E+00    5.8     0.00001646      -206.9612763646  4.85E-06
    35 Broy./Diag. 0.40E+00    5.7     0.00000803      -206.9612715330  4.83E-06
    36 Broy./Diag. 0.40E+00    5.7     0.00000606      -206.9612698973  1.64E-06
    37 Broy./Diag. 0.40E+00    5.7     0.00000237      -206.9612705672 -6.70E-07
    38 Broy./Diag. 0.40E+00    5.7     0.00000223      -206.9612709033 -3.36E-07
    39 Broy./Diag. 0.40E+00    5.7     0.00000150      -206.9612716029 -7.00E-07
    40 Broy./Diag. 0.40E+00    5.8     0.00000132      -206.9612707911  8.12E-07
    41 Broy./Diag. 0.40E+00    5.8     0.00000039      -206.9612705149  2.76E-07

  *** SCF run converged in    41 steps ***


  Electronic density on regular grids:       -140.0000000000        0.0000000000
  Core density on regular grids:              139.9999999999       -0.0000000001
  Total charge density on r-space grids:       -0.0000000001
  Total charge density g-space grids:          -0.0000000001

  Overlap energy of the core charge distribution:               0.00001350362019
  Self energy of the core charge distribution:               -499.08938345536433
  Core Hamiltonian energy:                                    154.41459290795891
  Hartree energy:                                             200.24029717334662
  Exchange-correlation energy:                                -62.46612604464691
  Dispersion energy:                                           -0.06066459979556

  Total energy:                                              -206.96127051488102

 !-----------------------------------------------------------------------------!
                     Mulliken Population Analysis

 #  Atom  Element  Kind  Atomic population                           Net charge
       1     O        1          6.310522                             -0.310522
       2     O        1          6.076323                             -0.076323
       3     O        1          6.078792                             -0.078792
       4     N        2          5.107006                             -0.107006
       5     C        3          4.369516                             -0.369516
       6     H        4          0.883427                              0.116573
       7     C        3          4.197941                             -0.197941
       8     H        4          0.873861                              0.126139
       9     C        3          4.150508                             -0.150508
      10     H        4          0.884409                              0.115591
      11     C        3          3.880583                              0.119417
      12     C        3          4.295754                             -0.295754
      13     H        4          0.859181                              0.140819
      14     C        3          3.549899                              0.450101
      15     C        3          3.978069                              0.021931
      16     H        4          0.842853                              0.157147
      17     C        3          4.230291                             -0.230291
      18     H        4          0.909415                              0.090585
      19     C        3          3.825287                              0.174713
      20     C        3          3.673350                              0.326650
      21     C        3          4.248875                             -0.248875
      22     H        4          0.840531                              0.159469
      23     C        3          4.318139                             -0.318139
      24     H        4          0.869659                              0.130341
      25     C        3          3.778206                              0.221794
      26     C        3          4.251675                             -0.251675
      27     H        4          0.857053                              0.142947
      28     C        3          4.257119                             -0.257119
      29     H        4          0.883786                              0.116214
      30     C        3          4.171149                             -0.171149
      31     H        4          0.878755                              0.121245
      32     C        3          3.499967                              0.500033
      33     C        3          4.363970                             -0.363970
      34     H        4          0.861959                              0.138041
      35     C        3          3.822045                              0.177955
      36     C        3          4.132319                             -0.132319
      37     H        4          0.883516                              0.116484
      38     C        3          4.161949                             -0.161949
      39     H        4          0.871840                              0.128160
      40     C        3          4.336049                             -0.336049
      41     H        4          0.843321                              0.156679
      42     C        3          4.396671                             -0.396671
      43     H        4          0.847747                              0.152253
      44     H        4          0.852065                              0.147935
      45     H        4          0.851423                              0.148577
      46     C        3          4.393424                             -0.393424
      47     H        4          0.847520                              0.152480
      48     H        4          0.851452                              0.148548
      49     H        4          0.850829                              0.149171
 # Total charge                            140.000000                 -0.000000

 !-----------------------------------------------------------------------------!

 !-----------------------------------------------------------------------------!
                           Hirshfeld Charges

  #Atom  Element  Kind  Ref Charge     Population                    Net charge
      1       O      1       6.000          6.524                        -0.524
      2       O      1       6.000          6.436                        -0.436
      3       O      1       6.000          6.437                        -0.437
      4       N      2       5.000          5.349                        -0.349
      5       C      3       4.000          4.460                        -0.460
      6       H      4       1.000          0.551                         0.449
      7       C      3       4.000          4.440                        -0.440
      8       H      4       1.000          0.550                         0.450
      9       C      3       4.000          4.472                        -0.472
     10       H      4       1.000          0.549                         0.451
     11       C      3       4.000          3.795                         0.205
     12       C      3       4.000          4.438                        -0.438
     13       H      4       1.000          0.544                         0.456
     14       C      3       4.000          3.986                         0.014
     15       C      3       4.000          4.367                        -0.367
     16       H      4       1.000          0.544                         0.456
     17       C      3       4.000          4.467                        -0.467
     18       H      4       1.000          0.554                         0.446
     19       C      3       4.000          3.705                         0.295
     20       C      3       4.000          4.009                        -0.009
     21       C      3       4.000          4.391                        -0.391
     22       H      4       1.000          0.542                         0.458
     23       C      3       4.000          4.457                        -0.457
     24       H      4       1.000          0.549                         0.451
     25       C      3       4.000          3.877                         0.123
     26       C      3       4.000          4.437                        -0.437
     27       H      4       1.000          0.546                         0.454
     28       C      3       4.000          4.438                        -0.438
     29       H      4       1.000          0.552                         0.448
     30       C      3       4.000          4.272                        -0.272
     31       H      4       1.000          0.556                         0.444
     32       C      3       4.000          3.990                         0.010
     33       C      3       4.000          4.444                        -0.444
     34       H      4       1.000          0.544                         0.456
     35       C      3       4.000          3.796                         0.204
     36       C      3       4.000          4.468                        -0.468
     37       H      4       1.000          0.549                         0.451
     38       C      3       4.000          4.436                        -0.436
     39       H      4       1.000          0.550                         0.450
     40       C      3       4.000          4.426                        -0.426
     41       H      4       1.000          0.542                         0.458
     42       C      3       4.000          5.037                        -1.037
     43       H      4       1.000          0.553                         0.447
     44       H      4       1.000          0.558                         0.442
     45       H      4       1.000          0.558                         0.442
     46       C      3       4.000          5.036                        -1.036
     47       H      4       1.000          0.553                         0.447
     48       H      4       1.000          0.558                         0.442
[...]
     44       H      4       1.000          0.556                         0.444
     45       H      4       1.000          0.556                         0.444
     46       C      3       4.000          5.038                        -1.038
     47       H      4       1.000          0.552                         0.448
     48       H      4       1.000          0.556                         0.444
     49       H      4       1.000          0.556                         0.444

  Total Charge                                                            0.051
 !-----------------------------------------------------------------------------!

 ENERGY| Total FORCE_EVAL ( QS ) energy [a.u.]:             -206.967632268818392

 -------------------------------------------------------------------------------
 -                                                                             -
 -                                DBCSR STATISTICS                             -
 -                                                                             -
 -------------------------------------------------------------------------------
 COUNTER                                    TOTAL       BLAS       SMM       ACC
 flops     6 x     6 x    17             61625952       0.0%    100.0%      0.0%
 flops     6 x     6 x     6             68432256       0.0%    100.0%      0.0%
 flops     6 x    32 x     6            137972736       0.0%    100.0%      0.0%
 flops     6 x    17 x     6            246454848       0.0%    100.0%      0.0%
 flops    17 x     6 x    17            272473824       0.0%    100.0%      0.0%
 flops    17 x     6 x     6            303503040       0.0%    100.0%      0.0%
 flops     6 x     6 x    32            591971328       0.0%    100.0%      0.0%
 flops    17 x    32 x     6            657343488       0.0%    100.0%      0.0%
 flops     6 x    32 x    17            657343488       0.0%    100.0%      0.0%
 flops    17 x    17 x     6           1124797248       0.0%    100.0%      0.0%
 flops    17 x     6 x    32           2580022272       0.0%    100.0%      0.0%
 flops     6 x    17 x    32           2628851712       0.0%    100.0%      0.0%
 flops    17 x    32 x    17           2906387456       0.0%    100.0%      0.0%
 flops    17 x    17 x    32          11997837312       0.0%    100.0%      0.0%
 flops inhomo. stacks                           0       0.0%      0.0%      0.0%
 flops total                        24.235017E+09       0.0%    100.0%      0.0%
 flops max/rank                    747.639360E+06       0.0%    100.0%      0.0%
 matmuls inhomo. stacks                         0       0.0%      0.0%      0.0%
 matmuls total                            3182916       0.0%    100.0%      0.0%
 number of processed stacks               1303302       0.0%    100.0%      0.0%
 average stack size                                     0.0       2.4       0.0
 marketing flops                    53.425594E+09
 -------------------------------------------------------------------------------
 # multiplications                           1053
 max memory usage/rank               1.715630E+09
 # max total images/rank                        5
 # max 3D layers                                1
 # MPI messages exchanged                 5022810
 MPI messages size (bytes):
  total size                        10.002004E+09
  min size                           0.000000E+00
  max size                          30.464000E+03
  average size                       1.991316E+03
 MPI breakdown and total messages size (bytes):
             size <=      128             4226355                        0
       128 < size <=     8192              266901               1002861856
      8192 < size <=    32768              529554               8999142016
     32768 < size <=   131072                   0                        0
    131072 < size <=  4194304                   0                        0
   4194304 < size <= 16777216                   0                        0
  16777216 < size                               0                        0
 -------------------------------------------------------------------------------

 *** WARNING in dbcsr_mm.F:291 :: Using a non-square number of MPI ranks ***
 *** might lead to poor performance. Used ranks: 90 Suggested: 81 169    ***

 -------------------------------------------------------------------------------
 -                                                                             -
 -                      DBCSR MESSAGE PASSING PERFORMANCE                      -
 -                                                                             -
 -------------------------------------------------------------------------------
 ROUTINE             CALLS      AVE VOLUME [Bytes]
 MP_Bcast               15                     12.
 MP_Allreduce         6883                      8.
 MP_Alltoall         21965                  28687.
 MP_ISend           120278                   1422.
 MP_IRecv           122384                    943.
 -------------------------------------------------------------------------------

 -------------------------------------------------------------------------------
 -                                                                             -
 -                                DBM STATISTICS                               -
 -                                                                             -
 -------------------------------------------------------------------------------
    M  x    N  x    K                                          COUNT     PERCENT
 -------------------------------------------------------------------------------

 -------------------------------------------------------------------------------
 -                                                                             -
 -                                GRID STATISTICS                              -
 -                                                                             -
 -------------------------------------------------------------------------------
 LP    KERNEL             BACKEND                              COUNT     PERCENT
 2     collocate ortho    CPU                                6122912      20.45%
 2     integrate ortho    CPU                                6077026      20.30%
 1     collocate ortho    CPU                                5018259      16.76%
 1     integrate ortho    CPU                                4887907      16.33%
 3     integrate ortho    CPU                                2036912       6.80%
 3     collocate ortho    CPU                                1889144       6.31%
 0     collocate ortho    CPU                                1491187       4.98%
 0     integrate ortho    CPU                                1436776       4.80%
 0     collocate general  CPU                                 291060       0.97%
 4     integrate ortho    CPU                                 227943       0.76%
 4     collocate ortho    CPU                                 167181       0.56%
 0     integrate general  CPU                                 145530       0.49%
 1     integrate general  CPU                                 141120       0.47%
 5     integrate ortho    CPU                                   5915       0.02%
 -------------------------------------------------------------------------------

 MEMORY| Estimated peak process memory [MiB]                                1637

 -------------------------------------------------------------------------------
 ----                             MULTIGRID INFO                            ----
 -------------------------------------------------------------------------------
 count for grid        1:        2691075          cutoff [a.u.]          300.00
 count for grid        2:        1282515          cutoff [a.u.]          100.00
 count for grid        3:         715416          cutoff [a.u.]           33.33
 count for grid        4:         163457          cutoff [a.u.]           11.11
 total gridlevel count  :        4852463

 -------------------------------------------------------------------------------
 -                                                                             -
 -                         MESSAGE PASSING PERFORMANCE                         -
 -                                                                             -
 -------------------------------------------------------------------------------

 ROUTINE             CALLS      AVE VOLUME [Bytes]
 MP_Group                4
 MP_Bcast             2209                 319156.
 MP_Allreduce        18195                    304.
 MP_Sync               875
 MP_Alltoall         23947               39486310.
 MP_SendRecv        172660                 197965.
 MP_ISendRecv       160734                 212400.
 MP_Wait            310534
 MP_comm_split         871
 MP_ISend           134820                 697865.
 MP_IRecv           134820                 697865.
 -------------------------------------------------------------------------------


 -------------------------------------------------------------------------------
 -                                                                             -
 -                           R E F E R E N C E S                               -
 -                                                                             -
 -------------------------------------------------------------------------------
 
 CP2K version 2023.2, the CP2K developers group (2023).
 CP2K is freely available from https://www.cp2k.org/ .

 Kuehne,Thomas D.; Iannuzzi,Marcella; Del Ben,Mauro;
 Rybkin,Vladimir V.; Seewald,Patrick; Stein,Frederick; Laino,Teodoro;
 Khaliullin,Rustam Z.; Schuett,Ole; Schiffmann,Florian; Golze,Dorothea;
 Wilhelm,Jan; Chulkov,Sergey; Bani-Hashemian,Mohammad Hossein;
 Weber,Valery; Borstnik,Urban; Taillefumier,Mathieu;
 Jakobovits,Alice Shoshana; Lazzaro,Alfio; Pabst,Hans; Mueller,Tiziano;
 Schade,Robert; Guidon,Manuel; Andermatt,Samuel; Holmberg,Nico;
 Schenter,Gregory K.; Hehn,Anna; Bussy,Augustin; Belleflamme,Fabian;
 Tabacchi,Gloria; Gloess,Andreas; Lass,Michael; Bethune,Iain;
 Mundy,Christopher J.; Plessl,Christian; Watkins,Matt;
 VandeVondele,Joost; Krack,Matthias; Hutter,Juerg. 
 The Journal of Chemical Physics, 152 (19), (2020). 
 CP2K: An electronic structure and molecular dynamics software package -
 Quickstep: Efficient and accurate electronic structure calculations.
 https://doi.org/10.1063/5.0007045

 Goerigk, Lars; Hansen, Andreas; Bauer, Christoph; Ehrlich, Stephan;
 Najibi, Asim; Grimme, Stefan. , 19 (48), (2017). 
 A look at the density functional theory zoo with the advanced GMTKN55 database
 for general main group thermochemistry, kinetics and noncovalent interactions.
 https://doi.org/10.1039/C7CP04913G

 Schuett, Ole; Messmer, Peter; Hutter, Juerg; VandeVondele, Joost. 
 Electronic Structure Calculations on Graphics Processing Units, John
 Wiley & Sons, Ltd, 173-190 (2016). 
 GPU-Accelerated Sparse Matrix-Matrix Multiplication for
 Linear Scaling Density Functional Theory.
 https://doi.org/10.1002/9781118670712.ch8

 Heinecke, A; Henry, G; Hutchinson, M; Pabst, H. 
 Proceedings of Intl. Supercomputing Conference, 981-991 (2016). 
 LIBXSMM: Accelerating Small Matrix Multiplications
 by Runtime Code Generation.
 https://doi.org/10.1109/SC.2016.83

 Borstnik, U; VandeVondele, J; Weber, V; Hutter, J. 
 PARALLEL COMPUTING, 40 (5-6), 47-58 (2014). 
 Sparse matrix multiplication: The distributed block-compressed sparse
 row library.
 https://doi.org/10.1016/j.parco.2014.03.012

 Hutter, J; Iannuzzi, M; Schiffmann, F; VandeVondele, J. 
 WIREs Comput Mol Sci., 4 (1), 15-25 (2014). 
 CP2K: atomistic simulations of condensed matter systems.
 https://doi.org/10.1002/wcms.1159

 Grimme, S; Ehrlich, S; Goerigk, L. 
 JOURNAL OF COMPUTATIONAL CHEMISTRY, 32, 1456 (2011). 
 Effect of the damping function in dispersion corrected density functional theory.
 https://doi.org/10.1002/jcc.21759

 Grimme, S; Antony, J; Ehrlich, S; Krieg, H. 
 JOURNAL OF CHEMICAL PHYSICS, 132 (15), 154104 (2010). 
 A consistent and accurate ab initio parametrization of density
 functional dispersion correction (DFT-D) for the 94 elements H-Pu.
 https://doi.org/10.1063/1.3382344

 Genovese, L; Deutsch, T; Goedecker, S. 
 JOURNAL OF CHEMICAL PHYSICS, 127 (5), 054704 (2007). 
 Efficient and accurate three-dimensional Poisson solver for surface
 problems.
 https://doi.org/10.1063/1.2754685

 Kuhne, TD; Krack, M; Mohamed, FR; Parrinello, M. 
 PHYSICAL REVIEW LETTERS, 98 (6), 066401 (2007). 
 Efficient and accurate Car-Parrinello-like approach to
 Born-Oppenheimer molecular dynamics.
 https://doi.org/10.1103/PhysRevLett.98.066401

 Genovese, L; Deutsch, T; Neelov, A; Goedecker, S; Beylkin, G. 
 JOURNAL OF CHEMICAL PHYSICS, 125 (7), 074105 (2006). 
 Efficient solution of Poisson's equation with free boundary conditions.
 https://doi.org/10.1063/1.2335442

 Krack, M. 
 THEORETICAL CHEMISTRY ACCOUNTS, 114 (1-3), 145-152 (2005). 
 Pseudopotentials for H to Kr optimized for gradient-corrected
 exchange-correlation functionals.
 https://doi.org/10.1007/s00214-005-0655-y

 VandeVondele, J; Krack, M; Mohamed, F; Parrinello, M; Chassaing, T;
 Hutter, J. COMPUTER PHYSICS COMMUNICATIONS, 167 (2), 103-128 (2005). 
 QUICKSTEP: Fast and accurate density functional calculations using a
 mixed Gaussian and plane waves approach.
 https://doi.org/10.1016/j.cpc.2004.12.014

 Frigo, M; Johnson, SG. 
 PROCEEDINGS OF THE IEEE, 93 (2), 216-231 (2005). 
 The design and implementation of FFTW3.
 https://doi.org/10.1109/JPROC.2004.840301

 Kolafa, J. 
 JOURNAL OF COMPUTATIONAL CHEMISTRY, 25 (3), 335-342 (2004). 
 Time-reversible always stable predictor-corrector method for
 molecular dynamics of polarizable molecules.
 https://doi.org/10.1002/jcc.10385

 Hartwigsen, C; Goedecker, S; Hutter, J. 
 PHYSICAL REVIEW B, 58 (7), 3641-3662 (1998). 
 Relativistic separable dual-space Gaussian pseudopotentials from H to Rn.
 https://doi.org/10.1103/PhysRevB.58.3641

 Lippert, G; Hutter, J; Parrinello, M. 
 MOLECULAR PHYSICS, 92 (3), 477-487 (1997). 
 A hybrid Gaussian and plane wave density functional scheme.
 https://doi.org/10.1080/002689797170220

 Perdew, JP; Burke, K; Ernzerhof, M. 
 PHYSICAL REVIEW LETTERS, 77 (18), 3865-3868 (1996). 
 Generalized gradient approximation made simple.
 https://doi.org/10.1103/PhysRevLett.77.3865

 Goedecker, S; Teter, M; Hutter, J. 
 PHYSICAL REVIEW B, 54 (3), 1703-1710 (1996). 
 Separable dual-space Gaussian pseudopotentials.
 https://doi.org/10.1103/PhysRevB.54.1703

 BYRD, RH; LU, PH; NOCEDAL, J; ZHU, CY. 
 SIAM JOURNAL ON SCIENTIFIC COMPUTING, 16 (5), 1190-1208 (1995). 
 A LIMITED MEMORY ALGORITHM FOR BOUND CONSTRAINED OPTIMIZATION.
 https://doi.org/10.1137/0916069


 -------------------------------------------------------------------------------
 -                                                                             -
 -                                T I M I N G                                  -
 -                                                                             -
 -------------------------------------------------------------------------------
 SUBROUTINE                       CALLS  ASD         SELF TIME        TOTAL TIME
                                MAXIMUM       AVERAGE  MAXIMUM  AVERAGE  MAXIMUM
 CP2K                                 1  1.0    0.284    0.468 5058.870 5058.876
 cp_geo_opt                           1  2.0    0.004    0.004 5056.968 5056.973
 geoopt_lbfgs                         1  3.0    0.000    0.002 5056.964 5056.969
 cp_eval_at                          33  5.0    0.008    0.011 5056.886 5056.891
 qs_energies                         33  6.9    0.010    0.016 4932.699 4932.726
 cp_opt_gopt_step                    28  4.0    0.005    0.022 4932.432 4932.438
 qs_forces                           32  6.0    0.003    0.004 4932.346 4932.351
 scf_env_do_scf                      33  7.9    0.004    0.006 4865.029 4867.619
 scf_env_do_scf_inner_loop          871  8.9    0.022    0.167 4865.025 4867.615
 rebuild_ks_matrix                  903 10.8    0.002    0.002 3491.898 3492.426
 qs_ks_build_kohn_sham_matrix       903 11.8    0.148    0.169 3491.896 3492.424
 qs_ks_update_qs_env                871  9.9    0.006    0.006 3368.749 3371.214
 pw_transfer                      18033 14.8    3.162    3.270 2542.442 2581.411
 fft_wrap_pw1pw2                  18033 15.8    0.423    0.483 2539.281 2578.183
 fft_wrap_pw1pw2_300              12612 17.0  444.260  454.189 2451.659 2480.210
 fft3d_ps                         18033 17.8 1031.959 1043.923 1750.428 1812.082
 qs_vxc_create                      903 12.8    0.037    0.043 1618.092 1629.238
 xc_vxc_pw_create                   903 13.8    8.458    9.963 1618.056 1629.207
 xc_pw_derive                      5418 15.8    0.122    0.133 1214.077 1254.590
 pw_poisson_solve                   903 12.8   19.760   20.789 1152.883 1152.885
 xc_pw_divergence                   903 14.8    0.061    0.067  796.636  828.045
 xc_rho_set_and_dset_create         903 14.8   11.496   13.383  794.271  812.148
 qs_rho_update_rho_low              904 10.0    0.005    0.006  801.258  801.296
 calculate_rho_elec                 904 11.0    3.453    3.491  801.254  801.291
 ps_wavelet_solve                   903 13.8  428.702  491.413  683.191  694.338
 gspace_mixing                      838  9.9    3.211    3.240  621.869  621.871
 mp_alltoall_z22v                 18033 19.8  498.027  615.869  498.027  615.869
 density_rs2pw                      904 12.0    0.086    0.093  598.404  611.084
 sum_up_and_integrate               903 12.8   14.073   14.964  513.682  514.208
 integrate_v_rspace                 903 13.8    0.041    0.049  499.608  500.267
 x_to_yz                           9869 19.0  148.041  150.746  418.802  470.248
 broyden_mixing                     838 10.9  375.436  385.285  450.390  452.123
 potential_pw2rs                    903 14.8    0.540    0.606  449.101  449.805
 rs_pw_transfer                    7359 14.4    0.190    0.217  436.577  448.818
 mp_alltoall_d54                    903 14.8  183.363  391.542  183.363  391.542
 yz_to_x                           8164 18.7   71.819   74.566  299.086  374.973
 grid_collocate_task_list           904 12.0  185.789  234.520  185.789  234.520
 mp_waitany                      134820 16.3  199.628  213.464  199.628  213.464
 mp_alltoall_d11v                 13032 14.0   85.697  186.669   85.697  186.669
 pw_gather_p                       8164 17.7  164.580  175.779  164.580  175.779
 pw_scatter_p                      9869 18.0  170.666  174.008  170.666  174.008
 xc_functional_eval                 903 15.8    0.018    0.021  149.159  163.602
 pbe_lda_eval                       903 16.8  149.141  163.584  149.141  163.584
 rs_pw_transfer_RS2PW_300           970 13.9   33.513   39.168  115.417  130.425
 rs_pw_transfer_PW2RS_300           968 16.6   40.249   42.699  123.756  124.952
 qs_ks_update_qs_env_forces          32  7.0    0.000    0.000  123.828  123.854
 pw_derive                         5418 16.8  113.922  117.676  113.922  117.676
 mp_sum_dm                         3270  8.3   57.048  116.848   57.048  116.848
 qs_scf_new_mos                     871  9.9    0.008    0.014  103.553  103.904
 -------------------------------------------------------------------------------

 The number of warnings for this run is : 1
 
 -------------------------------------------------------------------------------
  **** **** ******  **  PROGRAM ENDED AT                 2024-02-27 08:42:19.941
 ***** ** ***  *** **   PROGRAM RAN ON                              1b3a3a78178c
 **    ****   ******    PROGRAM RAN BY                                 <unknown>
 ***** **    ** ** **   PROGRAM PROCESS ID                                   538
  **** **  *******  **  PROGRAM STOPPED IN                                  /mnt
