 DBCSR| CPU Multiplication driver                                           XSMM (U)
 DBCSR| Multrec recursion limit                                              512 (U)
 DBCSR| Multiplication stack size                                           1000 (D)
 DBCSR| Maximum elements for images                                    UNLIMITED (U)
 DBCSR| Multiplicative factor virtual images                                   1 (U)
 DBCSR| Use multiplication densification                                       T (D)
 DBCSR| Multiplication size stacks                                             3 (U)
 DBCSR| Use memory pool for CPU allocation                                     F (U)
 DBCSR| Number of 3D layers                                               SINGLE (U)
 DBCSR| Use MPI memory allocation                                              F (U)
 DBCSR| Use RMA algorithm                                                      F (U)
 DBCSR| Use Communication thread                                               T (U)
 DBCSR| Communication thread load                                             83 (D)
 DBCSR| MPI: My process id                                                     0
 DBCSR| MPI: Number of processes                                              90
 DBCSR| OMP: Current number of threads                                         2
 DBCSR| OMP: Max number of threads                                             2
 DBCSR| Split modifier for TAS multiplication algorithm                  1.0E+00 (U)


  **** **** ******  **  PROGRAM STARTED AT               2024-03-17 11:29:53.612
 ***** ** ***  *** **   PROGRAM STARTED ON                          1da17a9250c7
 **    ****   ******    PROGRAM STARTED BY                             <unknown>
 ***** **    ** ** **   PROGRAM PROCESS ID                                   538
  **** **  *******  **  PROGRAM STARTED IN                                  /mnt

 CP2K| version string:                                       CP2K version 2023.2
 CP2K| source code revision number:                                  git:65cca6c
 CP2K| cp2kflags: omp libint fftw3 libxc pexsi elpa parallel scalapack cosma qui
 CP2K|            p xsmm plumed2 spglib sirius libvori libbqb libtorch libvdwxc
 CP2K| is freely available from                            https://www.cp2k.org/
 CP2K| Program compiled at                          Wed Oct 18 11:40:41 UTC 2023
 CP2K| Program compiled on                                          633bb7bf566f
 CP2K| Program compiled for                                                local
 CP2K| Data directory path                                        /opt/cp2k/data
 CP2K| Input file name                                   4amp34isopbe_solvent.in

 GLOBAL| Force Environment number                                              1
 GLOBAL| Basis set file name                                      GTH_BASIS_SETS
 GLOBAL| Potential file name                                           POTENTIAL
 GLOBAL| MM Potential file name                                     MM_POTENTIAL
 GLOBAL| Coordinate file name                                      __STD_INPUT__
 GLOBAL| Method name                                                        CP2K
 GLOBAL| Project name                                        4amp34isopbesolvent
 GLOBAL| Run type                                                         ENERGY
 GLOBAL| FFT library                                                       FFTW3
 GLOBAL| Diagonalization library                                       ScaLAPACK
 GLOBAL| DGEMM library                                                      BLAS
 GLOBAL| Orthonormality check for eigenvectors                          DISABLED
 GLOBAL| Matrix multiplication library                                     COSMA
 GLOBAL| All-to-all communication in single precision                          F
 GLOBAL| FFTs using library dependent lengths                                  F
 GLOBAL| Grid backend                                                       AUTO
 GLOBAL| Global print level                                               MEDIUM
 GLOBAL| MPI I/O enabled                                                       T
 GLOBAL| Total number of message passing processes                            90
 GLOBAL| Number of threads for this process                                    2
 GLOBAL| This output is from process                                           0
 GLOBAL| Stack size for threads created by OpenMP (OMP_STACKSIZE)            16M
 GLOBAL| CPU model name                                            AMD EPYC 9B14
 GLOBAL| CPUID                                                              1003
 GLOBAL| Compiled for CPUID                                                    0

 *** HINT in environment.F:904 :: The compiler target flags (generic) used ***
 *** to build this binary cannot exploit all extensions of this CPU model  ***
 *** (x86_avx512). Consider compiler target flags as part of FCFLAGS and   ***
 *** CFLAGS (ARCH file).                                                   ***


 MEMORY| system memory details [Kb]
 MEMORY|                        rank 0           min           max       average
 MEMORY| MemTotal            365023368     365023368     365023368     365023368
 MEMORY| MemFree             342564284     342564284     342574520     342566464
 MEMORY| Buffers                 42156         42156         42156         42156
 MEMORY| Cached                9339156       9339156       9339720       9339369
 MEMORY| Slab                   811788        811788        811820        811800
 MEMORY| SReclaimable           349680        349680        349680        349680
 MEMORY| MemLikelyFree       352295276     352295276     352306076     352297669


 *** Fundamental physical constants (SI units) ***

 *** Literature: B. J. Mohr and B. N. Taylor,
 ***             CODATA recommended values of the fundamental physical
 ***             constants: 2006, Web Version 5.1
 ***             http://physics.nist.gov/constants

 Speed of light in vacuum [m/s]                             2.99792458000000E+08
 Magnetic constant or permeability of vacuum [N/A**2]       1.25663706143592E-06
 Electric constant or permittivity of vacuum [F/m]          8.85418781762039E-12
 Planck constant (h) [J*s]                                  6.62606896000000E-34
 Planck constant (h-bar) [J*s]                              1.05457162825177E-34
 Elementary charge [C]                                      1.60217648700000E-19
 Electron mass [kg]                                         9.10938215000000E-31
 Electron g factor [ ]                                     -2.00231930436220E+00
 Proton mass [kg]                                           1.67262163700000E-27
 Fine-structure constant                                    7.29735253760000E-03
 Rydberg constant [1/m]                                     1.09737315685270E+07
 Avogadro constant [1/mol]                                  6.02214179000000E+23
 Boltzmann constant [J/K]                                   1.38065040000000E-23
 Atomic mass unit [kg]                                      1.66053878200000E-27
 Bohr radius [m]                                            5.29177208590000E-11

 *** Conversion factors ***

 [u] -> [a.u.]                                              1.82288848426455E+03
 [Angstrom] -> [Bohr] = [a.u.]                              1.88972613288564E+00
 [a.u.] = [Bohr] -> [Angstrom]                              5.29177208590000E-01
 [a.u.] -> [s]                                              2.41888432650478E-17
 [a.u.] -> [fs]                                             2.41888432650478E-02
 [a.u.] -> [J]                                              4.35974393937059E-18
 [a.u.] -> [N]                                              8.23872205491840E-08
 [a.u.] -> [K]                                              3.15774647902944E+05
 [a.u.] -> [kJ/mol]                                         2.62549961709828E+03
 [a.u.] -> [kcal/mol]                                       6.27509468713739E+02
 [a.u.] -> [Pa]                                             2.94210107994716E+13
 [a.u.] -> [bar]                                            2.94210107994716E+08
 [a.u.] -> [atm]                                            2.90362800883016E+08
 [a.u.] -> [eV]                                             2.72113838565563E+01
 [a.u.] -> [Hz]                                             6.57968392072181E+15
 [a.u.] -> [1/cm] (wave numbers)                            2.19474631370540E+05
 [a.u./Bohr**2] -> [1/cm]                                   5.14048714338585E+03
 

 CELL_TOP| Volume [angstrom^3]:                                     27000.000000
 CELL_TOP| Vector a [angstrom    30.000     0.000     0.000   |a| =    30.000000
 CELL_TOP| Vector b [angstrom     0.000    30.000     0.000   |b| =    30.000000
 CELL_TOP| Vector c [angstrom     0.000     0.000    30.000   |c| =    30.000000
 CELL_TOP| Angle (b,c), alpha [degree]:                                90.000000
 CELL_TOP| Angle (a,c), beta  [degree]:                                90.000000
 CELL_TOP| Angle (a,b), gamma [degree]:                                90.000000
 CELL_TOP| Numerically orthorhombic:                                         YES
 CELL_TOP| Periodicity                                                      NONE

 GENERATE|  Preliminary Number of Bonds generated:                             0
 GENERATE|  Achieved consistency in connectivity generation.

 CELL| Volume [angstrom^3]:                                         27000.000000
 CELL| Vector a [angstrom]:      30.000     0.000     0.000   |a| =    30.000000
 CELL| Vector b [angstrom]:       0.000    30.000     0.000   |b| =    30.000000
 CELL| Vector c [angstrom]:       0.000     0.000    30.000   |c| =    30.000000
 CELL| Angle (b,c), alpha [degree]:                                    90.000000
 CELL| Angle (a,c), beta  [degree]:                                    90.000000
 CELL| Angle (a,b), gamma [degree]:                                    90.000000
 CELL| Numerically orthorhombic:                                             YES
 CELL| Periodicity                                                          NONE

 CELL_REF| Volume [angstrom^3]:                                     27000.000000
 CELL_REF| Vector a [angstrom    30.000     0.000     0.000   |a| =    30.000000
 CELL_REF| Vector b [angstrom     0.000    30.000     0.000   |b| =    30.000000
 CELL_REF| Vector c [angstrom     0.000     0.000    30.000   |c| =    30.000000
 CELL_REF| Angle (b,c), alpha [degree]:                                90.000000
 CELL_REF| Angle (a,c), beta  [degree]:                                90.000000
 CELL_REF| Angle (a,b), gamma [degree]:                                90.000000
 CELL_REF| Numerically orthorhombic:                                         YES
 CELL_REF| Periodicity                                                      NONE

 *******************************************************************************
 *******************************************************************************
 **                                                                           **
 **     #####                         ##              ##                      **
 **    ##   ##            ##          ##              ##                      **
 **   ##     ##                       ##            ######                    **
 **   ##     ##  ##   ##  ##   #####  ##  ##   ####   ##    #####    #####    **
 **   ##     ##  ##   ##  ##  ##      ## ##   ##      ##   ##   ##  ##   ##   **
 **   ##  ## ##  ##   ##  ##  ##      ####     ###    ##   ######   ######    **
 **    ##  ###   ##   ##  ##  ##      ## ##      ##   ##   ##       ##        **
 **     #######   #####   ##   #####  ##  ##  ####    ##    #####   ##        **
 **           ##                                                    ##        **
 **                                                                           **
 **                                                ... make the atoms dance   **
 **                                                                           **
 **            Copyright (C) by CP2K developers group (2000-2023)             **
 **                      J. Chem. Phys. 152, 194103 (2020)                    **
 **                                                                           **
 *******************************************************************************

 DFT| Spin restricted Kohn-Sham (RKS) calculation                            RKS
 DFT| Multiplicity                                                             1
 DFT| Number of spin states                                                    1
 DFT| Charge                                                                   0
 DFT| Self-interaction correction (SIC)                                       NO
 DFT| Cutoffs: density                                              1.000000E-10
 DFT|          gradient                                             1.000000E-10
 DFT|          tau                                                  1.000000E-10
 DFT|          cutoff_smoothing_range                               0.000000E+00
 DFT| XC density smoothing                                                  NONE
 DFT| XC derivatives                                                          PW

 FUNCTIONAL| PBE:
 FUNCTIONAL| J.P.Perdew, K.Burke, M.Ernzerhof, Phys. Rev. Letter, vol. 77, n 18,
 FUNCTIONAL|  pp. 3865-3868, (1996){spin unpolarized}                           

 SCCS| Self-consistent continuum solvation model
 SCCS| Relative permittivity of the solvent (medium)                3.671000E+01
 SCCS| Absolute permittivity [a.u.]                                 2.921289E+00
 SCCS| Dielectric function proposed by Fattebert and Gygi
 SCCS|  beta                                                        1.700000E+00
 SCCS|  rho_zero                                                    6.000000E-04
 SCCS| Numerical derivative calculation      5-point stencil central differences
 SCCS| Repulsion parameter alpha [mN/m] = [dyn/cm]                  9.880000E+00
 SCCS| Dispersion parameter beta [GPa]                             -5.000000E-01
 SCCS| Surface tension gamma [mN/m] = [dyn/cm]                      3.642000E+01
 SCCS| Mixing parameter applied during the iteration cycle          6.000000E-01
 SCCS| Tolerance for the convergence of the SCCS iteration c        1.000000E-07
 SCCS| Maximum number of iteration steps                                     100
 SCCS| SCF convergence threshold for starting the SCCS itera        1.000000E-02
 SCCS| Numerical increment for the cavity surface calculatio        2.000000E-05

 vdW POTENTIAL|                                                   Pair Potential
 vdW POTENTIAL|          DFT-D3 (Version 3.1)
 vdW POTENTIAL|          Potential Form: S. Grimme et al, JCP 132: 154104 (2010)
 vdW POTENTIAL|          BJ Damping: S. Grimme et al, JCC 32: 1456 (2011)
 vdW POTENTIAL|          Cutoff Radius [Bohr]:                             30.24
 vdW POTENTIAL|          s6 Scaling Factor:                               1.0000
 vdW POTENTIAL|          a1 Damping Factor:                               0.4289
 vdW POTENTIAL|          s8 Scaling Factor:                               0.7875
 vdW POTENTIAL|          a2 Damping Factor:                               4.4407
 vdW POTENTIAL|          Cutoff for CN calculation:                   0.1000E-05

 QS| Method:                                                                 GPW
 QS| Density plane wave grid type                        NON-SPHERICAL FULLSPACE
 QS| Number of grid levels:                                                    6
 QS| Density cutoff [a.u.]:                                                300.0
 QS| Multi grid cutoff [a.u.]: 1) grid level                               300.0
 QS|                           2) grid level                               100.0
 QS|                           3) grid level                                33.3
 QS|                           4) grid level                                11.1
 QS|                           5) grid level                                 3.7
 QS|                           6) grid level                                 1.2
 QS| Grid level progression factor:                                          3.0
 QS| Relative density cutoff [a.u.]:                                        40.0
 QS| Interaction thresholds: eps_pgf_orb:                                1.0E-05
 QS|                         eps_filter_matrix:                          0.0E+00
 QS|                         eps_core_charge:                            1.0E-12
 QS|                         eps_rho_gspace:                             1.0E-10
 QS|                         eps_rho_rspace:                             1.0E-10
 QS|                         eps_gvg_rspace:                             1.0E-05
 QS|                         eps_ppl:                                    1.0E-02
 QS|                         eps_ppnl:                                   1.0E-07


 ATOMIC KIND INFORMATION

  1. Atomic kind: O                                     Number of atoms:       3

     Orbital Basis Set                                               TZVP-GTH-q6

       Number of orbital shell sets:                                           2
       Number of orbital shells:                                               7
       Number of primitive Cartesian functions:                                6
       Number of Cartesian basis functions:                                   18
       Number of spherical basis functions:                                   17
       Norm type:                                                              2

       Normalised Cartesian orbitals:

                        Set   Shell   Orbital            Exponent    Coefficient

                          1       1    2s               10.267442       0.404544
                                                         3.748050       0.199889
                                                         1.330834      -0.336302
                                                         0.455680      -0.246356
                                                         0.146292      -0.028287

                          1       2    3s               10.267442       0.000000
                                                         3.748050       0.000000
                                                         1.330834       0.000000
                                                         0.455680       0.395280
                                                         0.146292       0.000000

                          1       3    4s               10.267442       0.000000
                                                         3.748050       0.000000
                                                         1.330834       0.000000
                                                         0.455680       0.000000
                                                         0.146292       0.168588

                          1       4    3px              10.267442      -1.561025
                                                         3.748050      -1.394275
                                                         1.330834      -0.754014
                                                         0.455680      -0.224400
                                                         0.146292      -0.029841
                          1       4    3py              10.267442      -1.561025
                                                         3.748050      -1.394275
                                                         1.330834      -0.754014
                                                         0.455680      -0.224400
                                                         0.146292      -0.029841
                          1       4    3pz              10.267442      -1.561025
                                                         3.748050      -1.394275
                                                         1.330834      -0.754014
                                                         0.455680      -0.224400
                                                         0.146292      -0.029841

                          1       5    4px              10.267442       0.000000
                                                         3.748050       0.000000
                                                         1.330834       0.000000
                                                         0.455680       0.533661
                                                         0.146292       0.000000
                          1       5    4py              10.267442       0.000000
                                                         3.748050       0.000000
                                                         1.330834       0.000000
                                                         0.455680       0.533661
                                                         0.146292       0.000000
                          1       5    4pz              10.267442       0.000000
                                                         3.748050       0.000000
                                                         1.330834       0.000000
                                                         0.455680       0.533661
                                                         0.146292       0.000000

                          1       6    5px              10.267442       0.000000
                                                         3.748050       0.000000
                                                         1.330834       0.000000
                                                         0.455680       0.000000
                                                         0.146292       0.128963
                          1       6    5py              10.267442       0.000000
                                                         3.748050       0.000000
                                                         1.330834       0.000000
                                                         0.455680       0.000000
                                                         0.146292       0.128963
                          1       6    5pz              10.267442       0.000000
                                                         3.748050       0.000000
                                                         1.330834       0.000000
                                                         0.455680       0.000000
                                                         0.146292       0.128963

                          2       1    3dx2              1.185000       2.215218
                          2       1    3dxy              1.185000       3.836871
                          2       1    3dxz              1.185000       3.836871
                          2       1    3dy2              1.185000       2.215218
                          2       1    3dyz              1.185000       3.836871
                          2       1    3dz2              1.185000       2.215218

       Atomic covalent radius [Angstrom]:                                  0.730

       Atomic van der Waals radius [Angstrom]:                             1.520

     GTH Potential information for                                       GTH-PBE

       Description:                       Goedecker-Teter-Hutter pseudopotential
                                           Goedecker et al., PRB 54, 1703 (1996)
                                          Hartwigsen et al., PRB 58, 3641 (1998)
                                                      Krack, TCA 114, 145 (2005)

       Gaussian exponent of the core charge distribution:               8.360253
       Electronic configuration (s p d ...):                               2   4

       Parameters of the local part of the GTH pseudopotential:

                          rloc        C1          C2          C3          C4
                        0.244554  -16.667215    2.487311

       Parameters of the non-local part of the GTH pseudopotential:

                   l      r(l)      h(i,j,l)

                   0    0.220956   18.337458
                   1    0.211332

  2. Atomic kind: N                                     Number of atoms:       1

     Orbital Basis Set                                               TZVP-GTH-q5

       Number of orbital shell sets:                                           2
       Number of orbital shells:                                               7
       Number of primitive Cartesian functions:                                6
       Number of Cartesian basis functions:                                   18
       Number of spherical basis functions:                                   17
       Norm type:                                                              2

       Normalised Cartesian orbitals:

                        Set   Shell   Orbital            Exponent    Coefficient

                          1       1    2s                7.622745       0.321703
                                                         2.797061       0.161118
                                                         0.990977      -0.264934
                                                         0.341731      -0.199987
                                                         0.111682      -0.023066

                          1       2    3s                7.622745       0.000000
                                                         2.797061       0.000000
                                                         0.990977       0.000000
                                                         0.341731       0.318547
                                                         0.111682       0.000000

                          1       3    4s                7.622745       0.000000
                                                         2.797061       0.000000
                                                         0.990977       0.000000
                                                         0.341731       0.000000
                                                         0.111682       0.137689

                          1       4    3px               7.622745      -1.014025
                                                         2.797061      -0.927144
                                                         0.990977      -0.514975
                                                         0.341731      -0.158623
                                                         0.111682      -0.021774
                          1       4    3py               7.622745      -1.014025
                                                         2.797061      -0.927144
                                                         0.990977      -0.514975
                                                         0.341731      -0.158623
                                                         0.111682      -0.021774
                          1       4    3pz               7.622745      -1.014025
                                                         2.797061      -0.927144
                                                         0.990977      -0.514975
                                                         0.341731      -0.158623
                                                         0.111682      -0.021774

                          1       5    4px               7.622745       0.000000
                                                         2.797061       0.000000
                                                         0.990977       0.000000
                                                         0.341731       0.372431
                                                         0.111682       0.000000
                          1       5    4py               7.622745       0.000000
                                                         2.797061       0.000000
                                                         0.990977       0.000000
                                                         0.341731       0.372431
                                                         0.111682       0.000000
                          1       5    4pz               7.622745       0.000000
                                                         2.797061       0.000000
                                                         0.990977       0.000000
                                                         0.341731       0.372431
                                                         0.111682       0.000000

                          1       6    5px               7.622745       0.000000
                                                         2.797061       0.000000
                                                         0.990977       0.000000
                                                         0.341731       0.000000
                                                         0.111682       0.092028
                          1       6    5py               7.622745       0.000000
                                                         2.797061       0.000000
                                                         0.990977       0.000000
                                                         0.341731       0.000000
                                                         0.111682       0.092028
                          1       6    5pz               7.622745       0.000000
                                                         2.797061       0.000000
                                                         0.990977       0.000000
                                                         0.341731       0.000000
                                                         0.111682       0.092028

                          2       1    3dx2              0.817000       1.155575
                          2       1    3dxy              0.817000       2.001514
                          2       1    3dxz              0.817000       2.001514
                          2       1    3dy2              0.817000       1.155575
                          2       1    3dyz              0.817000       2.001514
                          2       1    3dz2              0.817000       1.155575

       Atomic covalent radius [Angstrom]:                                  0.750

       Atomic van der Waals radius [Angstrom]:                             1.550

     GTH Potential information for                                       GTH-PBE

       Description:                       Goedecker-Teter-Hutter pseudopotential
                                           Goedecker et al., PRB 54, 1703 (1996)
                                          Hartwigsen et al., PRB 58, 3641 (1998)
                                                      Krack, TCA 114, 145 (2005)

       Gaussian exponent of the core charge distribution:               6.208322
       Electronic configuration (s p d ...):                               2   3

       Parameters of the local part of the GTH pseudopotential:

                          rloc        C1          C2          C3          C4
                        0.283791  -12.415226    1.868096

       Parameters of the non-local part of the GTH pseudopotential:

                   l      r(l)      h(i,j,l)

                   0    0.255405   13.630263
                   1    0.245495

  3. Atomic kind: C                                     Number of atoms:      24

     Orbital Basis Set                                               TZVP-GTH-q4

       Number of orbital shell sets:                                           2
       Number of orbital shells:                                               7
       Number of primitive Cartesian functions:                                6
       Number of Cartesian basis functions:                                   18
       Number of spherical basis functions:                                   17
       Norm type:                                                              2

       Normalised Cartesian orbitals:

                        Set   Shell   Orbital            Exponent    Coefficient

                          1       1    2s                5.368566       0.245056
                                                         1.983069       0.124102
                                                         0.697835      -0.198350
                                                         0.243097      -0.156359
                                                         0.081287      -0.018192

                          1       2    3s                5.368566       0.000000
                                                         1.983069       0.000000
                                                         0.697835       0.000000
                                                         0.243097       0.246743
                                                         0.081287       0.000000

                          1       3    4s                5.368566       0.000000
                                                         1.983069       0.000000
                                                         0.697835       0.000000
                                                         0.243097       0.000000
                                                         0.081287       0.108499

                          1       4    3px               5.368566      -0.595193
                                                         1.983069      -0.567909
                                                         0.697835      -0.325466
                                                         0.243097      -0.105296
                                                         0.081287      -0.015205
                          1       4    3py               5.368566      -0.595193
                                                         1.983069      -0.567909
                                                         0.697835      -0.325466
                                                         0.243097      -0.105296
                                                         0.081287      -0.015205
                          1       4    3pz               5.368566      -0.595193
                                                         1.983069      -0.567909
                                                         0.697835      -0.325466
                                                         0.243097      -0.105296
                                                         0.081287      -0.015205

                          1       5    4px               5.368566       0.000000
                                                         1.983069       0.000000
                                                         0.697835       0.000000
                                                         0.243097       0.243312
                                                         0.081287       0.000000
                          1       5    4py               5.368566       0.000000
                                                         1.983069       0.000000
                                                         0.697835       0.000000
                                                         0.243097       0.243312
                                                         0.081287       0.000000
                          1       5    4pz               5.368566       0.000000
                                                         1.983069       0.000000
                                                         0.697835       0.000000
                                                         0.243097       0.243312
                                                         0.081287       0.000000

                          1       6    5px               5.368566       0.000000
                                                         1.983069       0.000000
                                                         0.697835       0.000000
                                                         0.243097       0.000000
                                                         0.081287       0.061868
                          1       6    5py               5.368566       0.000000
                                                         1.983069       0.000000
                                                         0.697835       0.000000
                                                         0.243097       0.000000
                                                         0.081287       0.061868
                          1       6    5pz               5.368566       0.000000
                                                         1.983069       0.000000
                                                         0.697835       0.000000
                                                         0.243097       0.000000
                                                         0.081287       0.061868

                          2       1    3dx2              0.550000       0.578155
                          2       1    3dxy              0.550000       1.001394
                          2       1    3dxz              0.550000       1.001394
                          2       1    3dy2              0.550000       0.578155
                          2       1    3dyz              0.550000       1.001394
                          2       1    3dz2              0.550000       0.578155

       Atomic covalent radius [Angstrom]:                                  0.770

       Atomic van der Waals radius [Angstrom]:                             1.700

     GTH Potential information for                                       GTH-PBE

       Description:                       Goedecker-Teter-Hutter pseudopotential
                                           Goedecker et al., PRB 54, 1703 (1996)
                                          Hartwigsen et al., PRB 58, 3641 (1998)
                                                      Krack, TCA 114, 145 (2005)

       Gaussian exponent of the core charge distribution:               4.364419
       Electronic configuration (s p d ...):                               2   2

       Parameters of the local part of the GTH pseudopotential:

                          rloc        C1          C2          C3          C4
                        0.338471   -8.803674    1.339211

       Parameters of the non-local part of the GTH pseudopotential:

                   l      r(l)      h(i,j,l)

                   0    0.302576    9.622487
                   1    0.291507

  4. Atomic kind: H                                     Number of atoms:      15

     Orbital Basis Set                                               TZVP-GTH-q1

       Number of orbital shell sets:                                           2
       Number of orbital shells:                                               4
       Number of primitive Cartesian functions:                                6
       Number of Cartesian basis functions:                                    6
       Number of spherical basis functions:                                    6
       Norm type:                                                              2

       Normalised Cartesian orbitals:

                        Set   Shell   Orbital            Exponent    Coefficient

                          1       1    1s               10.882724      -0.071340
                                                         3.096875      -0.104410
                                                         0.987452      -0.135375
                                                         0.345069      -0.133923
                                                         0.149269      -0.073092

                          1       2    2s               10.882724       0.000000
                                                         3.096875       0.000000
                                                         0.987452       0.000000
                                                         0.345069       0.320878
                                                         0.149269       0.000000

                          1       3    3s               10.882724       0.000000
                                                         3.096875       0.000000
                                                         0.987452       0.000000
                                                         0.345069       0.000000
                                                         0.149269       0.171154

                          2       1    2px               0.727000       0.956881
                          2       1    2py               0.727000       0.956881
                          2       1    2pz               0.727000       0.956881

       Atomic covalent radius [Angstrom]:                                  0.320

       Atomic van der Waals radius [Angstrom]:                             1.090

     GTH Potential information for                                       GTH-PBE

       Description:                       Goedecker-Teter-Hutter pseudopotential
                                           Goedecker et al., PRB 54, 1703 (1996)
                                          Hartwigsen et al., PRB 58, 3641 (1998)
                                                      Krack, TCA 114, 145 (2005)

       Gaussian exponent of the core charge distribution:              12.500000
       Electronic configuration (s p d ...):                                   1

       Parameters of the local part of the GTH pseudopotential:

                          rloc        C1          C2          C3          C4
                        0.200000   -4.178900    0.724463

  5. Atomic kind: F                                     Number of atoms:       6

     Orbital Basis Set                                               TZVP-GTH-q7

       Number of orbital shell sets:                                           2
       Number of orbital shells:                                               7
       Number of primitive Cartesian functions:                                6
       Number of Cartesian basis functions:                                   18
       Number of spherical basis functions:                                   17
       Norm type:                                                              2

       Normalised Cartesian orbitals:

                        Set   Shell   Orbital            Exponent    Coefficient

                          1       1    2s               13.162513       0.499791
                                                         4.797202       0.231391
                                                         1.704998      -0.412780
                                                         0.581447      -0.293250
                                                         0.184258      -0.033277

                          1       2    3s               13.162513       0.000000
                                                         4.797202       0.000000
                                                         1.704998       0.000000
                                                         0.581447       0.474562
                                                         0.184258       0.000000

                          1       3    4s               13.162513       0.000000
                                                         4.797202       0.000000
                                                         1.704998       0.000000
                                                         0.581447       0.000000
                                                         0.184258       0.200438

                          1       4    3px              13.162513      -2.230542
                                                         4.797202      -1.972071
                                                         1.704998      -1.037904
                                                         0.581447      -0.300489
                                                         0.184258      -0.039017
                          1       4    3py              13.162513      -2.230542
                                                         4.797202      -1.972071
                                                         1.704998      -1.037904
                                                         0.581447      -0.300489
                                                         0.184258      -0.039017
                          1       4    3pz              13.162513      -2.230542
                                                         4.797202      -1.972071
                                                         1.704998      -1.037904
                                                         0.581447      -0.300489
                                                         0.184258      -0.039017

                          1       5    4px              13.162513       0.000000
                                                         4.797202       0.000000
                                                         1.704998       0.000000
                                                         0.581447       0.723732
                                                         0.184258       0.000000
                          1       5    4py              13.162513       0.000000
                                                         4.797202       0.000000
                                                         1.704998       0.000000
                                                         0.581447       0.723732
                                                         0.184258       0.000000
                          1       5    4pz              13.162513       0.000000
                                                         4.797202       0.000000
                                                         1.704998       0.000000
                                                         0.581447       0.723732
                                                         0.184258       0.000000

                          1       6    5px              13.162513       0.000000
                                                         4.797202       0.000000
                                                         1.704998       0.000000
                                                         0.581447       0.000000
                                                         0.184258       0.172077
                          1       6    5py              13.162513       0.000000
                                                         4.797202       0.000000
                                                         1.704998       0.000000
                                                         0.581447       0.000000
                                                         0.184258       0.172077
                          1       6    5pz              13.162513       0.000000
                                                         4.797202       0.000000
                                                         1.704998       0.000000
                                                         0.581447       0.000000
                                                         0.184258       0.172077

                          2       1    3dx2              1.640000       3.911886
                          2       1    3dxy              1.640000       6.775585
                          2       1    3dxz              1.640000       6.775585
                          2       1    3dy2              1.640000       3.911886
                          2       1    3dyz              1.640000       6.775585
                          2       1    3dz2              1.640000       3.911886

       Atomic covalent radius [Angstrom]:                                  0.720

       Atomic van der Waals radius [Angstrom]:                             1.470

     GTH Potential information for                                       GTH-PBE

       Description:                       Goedecker-Teter-Hutter pseudopotential
                                           Goedecker et al., PRB 54, 1703 (1996)
                                          Hartwigsen et al., PRB 58, 3641 (1998)
                                                      Krack, TCA 114, 145 (2005)

       Gaussian exponent of the core charge distribution:              10.823746
       Electronic configuration (s p d ...):                               2   5

       Parameters of the local part of the GTH pseudopotential:

                          rloc        C1          C2          C3          C4
                        0.214930  -21.573028    3.199776

       Parameters of the non-local part of the GTH pseudopotential:

                   l      r(l)      h(i,j,l)

                   0    0.194684   23.743540
                   1    0.186156


 MOLECULE KIND INFORMATION


 All atoms are their own molecule, skipping detailed information


 TOTAL NUMBERS AND MAXIMUM NUMBERS

  Total number of            - Atomic kinds:                                   5
                             - Atoms:                                         49
                             - Shell sets:                                    98
                             - Shells:                                       298
                             - Primitive Cartesian functions:                294
                             - Cartesian basis functions:                    702
                             - Spherical basis functions:                    668

  Maximum angular momentum of- Orbital basis functions:                        2
                             - Local part of the GTH pseudopotential:          2
                             - Non-local part of the GTH pseudopotential:      0


 MODULE QUICKSTEP: ATOMIC COORDINATES IN ANGSTROM

   Atom Kind Element         X             Y             Z       Z(eff)     Mass
      1    1 O     8     13.184693     11.856081     12.736534   6.0000  15.9994
      2    1 O     8      7.428488     17.133857      9.561703   6.0000  15.9994
      3    1 O     8     22.371012     16.458234     20.309876   6.0000  15.9994
      4    2 N     7     17.635641     14.164845     16.659932   5.0000  14.0067
      5    3 C     6     10.228594     16.047135     11.716019   4.0000  12.0107
      6    4 H     1     10.959462     16.488835     12.394507   1.0000   1.0079
      7    3 C     6      9.275687     16.869738     11.123840   4.0000  12.0107
      8    4 H     1      9.245344     17.939319     11.329513   1.0000   1.0079
      9    3 C     6      8.349079     16.301102     10.246714   4.0000  12.0107
     10    3 C     6      8.348377     14.941525      9.950785   4.0000  12.0107
     11    4 H     1      7.609000     14.536102      9.260998   1.0000   1.0079
     12    3 C     6      9.310656     14.130921     10.548993   4.0000  12.0107
     13    4 H     1      9.335761     13.063811     10.322007   1.0000   1.0079
     14    3 C     6     10.270203     14.664003     11.434775   4.0000  12.0107
     15    3 C     6     11.270565     13.762856     11.986080   4.0000  12.0107
     16    4 H     1     11.200200     12.713669     11.678405   1.0000   1.0079
     17    3 C     6     12.296450     14.061940     12.814424   4.0000  12.0107
     18    4 H     1     12.467760     15.078988     13.169459   1.0000   1.0079
     19    3 C     6     13.261829     13.005578     13.198445   4.0000  12.0107
     20    3 C     6     14.372453     13.368891     14.122624   4.0000  12.0107
     21    3 C     6     15.508310     12.536269     14.144076   4.0000  12.0107
     22    4 H     1     15.524078     11.673531     13.477173   1.0000   1.0079
     23    3 C     6     16.569365     12.809652     14.992563   4.0000  12.0107
     24    4 H     1     17.458779     12.178516     15.014181   1.0000   1.0079
     25    3 C     6     16.527705     13.936422     15.839389   4.0000  12.0107
     26    3 C     6     15.375974     14.749507     15.854445   4.0000  12.0107
     27    4 H     1     15.307130     15.576833     16.562934   1.0000   1.0079
     28    3 C     6     14.317327     14.472035     14.994030   4.0000  12.0107
     29    4 H     1     13.427784     15.102475     15.031395   1.0000   1.0079
     30    3 C     6     18.018154     15.373481     16.895405   4.0000  12.0107
     31    4 H     1     17.528420     16.245085     16.421662   1.0000   1.0079
     32    3 C     6     19.145630     15.658613     17.775469   4.0000  12.0107
     33    3 C     6     19.907313     14.609455     18.326889   4.0000  12.0107
     34    4 H     1     19.635352     13.583329     18.078209   1.0000   1.0079
     35    3 C     6     20.989118     14.890882     19.149493   4.0000  12.0107
     36    4 H     1     21.606596     14.101618     19.578489   1.0000   1.0079
     37    3 C     6     21.295926     16.225552     19.421977   4.0000  12.0107
     38    3 C     6     20.553832     17.287380     18.908753   4.0000  12.0107
     39    4 H     1     20.815607     18.314488     19.157385   1.0000   1.0079
     40    3 C     6     19.480419     16.991776     18.068705   4.0000  12.0107
     41    4 H     1     18.890010     17.804064     17.639525   1.0000   1.0079
     42    3 C     6     23.494542     17.020565     19.782877   4.0000  12.0107
     43    5 F     9     23.331099     18.326469     19.409396   7.0000  18.9984
     44    5 F     9     24.447929     16.973543     20.739002   7.0000  18.9984
     45    5 F     9     23.931708     16.374155     18.664428   7.0000  18.9984
     46    3 C     6      6.290954     17.466547     10.236433   4.0000  12.0107
     47    5 F     9      5.552071     16.375500     10.592298   7.0000  18.9984
     48    5 F     9      5.553830     18.235946      9.407664   7.0000  18.9984
     49    5 F     9      6.520107     18.159937     11.401314   7.0000  18.9984



 SCF PARAMETERS         Density guess:                                   RESTART
                        --------------------------------------------------------
                        max_scf:                                             128
                        max_scf_history:                                       0
                        max_diis:                                              4
                        --------------------------------------------------------
                        eps_scf:                                        1.00E-05
                        eps_scf_history:                                0.00E+00
                        eps_diis:                                       1.00E-01
                        eps_eigval:                                     1.00E-05
                        --------------------------------------------------------
                        level_shift [a.u.]:                             0.000000
                        added MOs                                        70    0
                        --------------------------------------------------------
                        Mixing method:                            BROYDEN_MIXING
                                                charge density mixing in g-space
                        --------------------------------------------------------
                        No outer SCF

 PW_GRID| Information for grid number                                          1
 PW_GRID| Grid distributed over                                    90 processors
 PW_GRID| Real space group dimensions                                    90    1
 PW_GRID| the grid is blocked:                                                NO
 PW_GRID| Cutoff [a.u.]                                                    300.0
 PW_GRID| spherical cutoff:                                                   NO
 PW_GRID|   Bounds   1           -225     224                Points:         450
 PW_GRID|   Bounds   2           -225     224                Points:         450
 PW_GRID|   Bounds   3           -225     224                Points:         450
 PW_GRID| Volume element (a.u.^3)  0.2000E-02     Volume (a.u.^3)    182205.0337
 PW_GRID| Grid span                                                    FULLSPACE
 PW_GRID|   Distribution                         Average         Max         Min
 PW_GRID|   G-Vectors                          1012500.0     1012500     1012500
 PW_GRID|   G-Rays                                2250.0        2250        2250
 PW_GRID|   Real Space Points                  1012500.0     1012500     1012500

 PW_GRID| Information for grid number                                          2
 PW_GRID| Number of the reference grid                                         1
 PW_GRID| Grid distributed over                                    90 processors
 PW_GRID| Real space group dimensions                                    90    1
 PW_GRID| the grid is blocked:                                                NO
 PW_GRID| Cutoff [a.u.]                                                    100.0
 PW_GRID| spherical cutoff:                                                   NO
 PW_GRID|   Bounds   1           -128     127                Points:         256
 PW_GRID|   Bounds   2           -128     127                Points:         256
 PW_GRID|   Bounds   3           -128     127                Points:         256
 PW_GRID| Volume element (a.u.^3)  0.1086E-01     Volume (a.u.^3)    182205.0337
 PW_GRID| Grid span                                                    FULLSPACE
 PW_GRID|   Distribution                         Average         Max         Min
 PW_GRID|   G-Vectors                           186413.5      186880      185856
 PW_GRID|   G-Rays                                 728.2         730         726
 PW_GRID|   Real Space Points                   186413.5      196608      131072

 PW_GRID| Information for grid number                                          3
 PW_GRID| Number of the reference grid                                         1
 PW_GRID| Grid distributed over                                    90 processors
 PW_GRID| Real space group dimensions                                    90    1
 PW_GRID| the grid is blocked:                                                NO
 PW_GRID| Cutoff [a.u.]                                                     33.3
 PW_GRID| spherical cutoff:                                                   NO
 PW_GRID|   Bounds   1            -75      74                Points:         150
 PW_GRID|   Bounds   2            -75      74                Points:         150
 PW_GRID|   Bounds   3            -75      74                Points:         150
 PW_GRID| Volume element (a.u.^3)  0.5399E-01     Volume (a.u.^3)    182205.0337
 PW_GRID| Grid span                                                    FULLSPACE
 PW_GRID|   Distribution                         Average         Max         Min
 PW_GRID|   G-Vectors                            37500.0       37650       37350
 PW_GRID|   G-Rays                                 250.0         251         249
 PW_GRID|   Real Space Points                    37500.0       45000       22500

 PW_GRID| Information for grid number                                          4
 PW_GRID| Number of the reference grid                                         1
 PW_GRID| Grid distributed over                                    90 processors
 PW_GRID| Real space group dimensions                                    90    1
 PW_GRID| the grid is blocked:                                                NO
 PW_GRID| Cutoff [a.u.]                                                     11.1
 PW_GRID| spherical cutoff:                                                   NO
 PW_GRID|   Bounds   1            -45      44                Points:          90
 PW_GRID|   Bounds   2            -45      44                Points:          90
 PW_GRID|   Bounds   3            -45      44                Points:          90
 PW_GRID| Volume element (a.u.^3)  0.2499         Volume (a.u.^3)    182205.0337
 PW_GRID| Grid span                                                    FULLSPACE
 PW_GRID|   Distribution                         Average         Max         Min
 PW_GRID|   G-Vectors                             8100.0        8370        7920
 PW_GRID|   G-Rays                                  90.0          93          88
 PW_GRID|   Real Space Points                     8100.0        8100        8100

 PW_GRID| Information for grid number                                          5
 PW_GRID| Number of the reference grid                                         1
 PW_GRID| Grid distributed over                                    90 processors
 PW_GRID| Real space group dimensions                                     9   10
 PW_GRID| the grid is blocked:                                                NO
 PW_GRID| Cutoff [a.u.]                                                      3.7
 PW_GRID| spherical cutoff:                                                   NO
 PW_GRID|   Bounds   1            -27      26                Points:          54
 PW_GRID|   Bounds   2            -27      26                Points:          54
 PW_GRID|   Bounds   3            -27      26                Points:          54
 PW_GRID| Volume element (a.u.^3)   1.157         Volume (a.u.^3)    182205.0337
 PW_GRID| Grid span                                                    FULLSPACE
 PW_GRID|   Distribution                         Average         Max         Min
 PW_GRID|   G-Vectors                             1749.6        1782        1728
 PW_GRID|   G-Rays                                  32.4          33          32
 PW_GRID|   Real Space Points                     1749.6        1944        1620

 PW_GRID| Information for grid number                                          6
 PW_GRID| Number of the reference grid                                         1
 PW_GRID| Grid distributed over                                    90 processors
 PW_GRID| Real space group dimensions                                     9   10
 PW_GRID| the grid is blocked:                                                NO
 PW_GRID| Cutoff [a.u.]                                                      1.2
 PW_GRID| spherical cutoff:                                                   NO
 PW_GRID|   Bounds   1            -15      14                Points:          30
 PW_GRID|   Bounds   2            -15      14                Points:          30
 PW_GRID|   Bounds   3            -15      14                Points:          30
 PW_GRID| Volume element (a.u.^3)   6.748         Volume (a.u.^3)    182205.0337
 PW_GRID| Grid span                                                    FULLSPACE
 PW_GRID|   Distribution                         Average         Max         Min
 PW_GRID|   G-Vectors                              300.0         330         270
 PW_GRID|   G-Rays                                  10.0          11           9
 PW_GRID|   Real Space Points                      300.0         360         270

 POISSON| Solver                                                         WAVELET
 POISSON| Wavelet| Scaling function                                           40
 POISSON| Periodicity                                                       NONE

 RS_GRID| Information for grid number                                          1
 RS_GRID|   Bounds   1           -225     224                Points:         450
 RS_GRID|   Bounds   2           -225     224                Points:         450
 RS_GRID|   Bounds   3           -225     224                Points:         450
 RS_GRID| Real space distribution over                                  3 groups
 RS_GRID| Real space distribution along direction                              1
 RS_GRID| Border size                                                         29
 RS_GRID| Real space distribution over                                  5 groups
 RS_GRID| Real space distribution along direction                              2
 RS_GRID| Border size                                                         29
 RS_GRID| Real space distribution over                                  6 groups
 RS_GRID| Real space distribution along direction                              3
 RS_GRID| Border size                                                         29
 RS_GRID|   Distribution                         Average         Max         Min
 RS_GRID|   Planes                                 208.0         208         208
 RS_GRID|   Distribution                         Average         Max         Min
 RS_GRID|   Planes                                 148.0         148         148
 RS_GRID|   Distribution                         Average         Max         Min
 RS_GRID|   Planes                                 133.0         133         133

 RS_GRID| Information for grid number                                          2
 RS_GRID|   Bounds   1           -128     127                Points:         256
 RS_GRID|   Bounds   2           -128     127                Points:         256
 RS_GRID|   Bounds   3           -128     127                Points:         256
 RS_GRID| Real space distribution over                                  3 groups
 RS_GRID| Real space distribution along direction                              1
 RS_GRID| Border size                                                         28
 RS_GRID| Real space distribution over                                  5 groups
 RS_GRID| Real space distribution along direction                              2
 RS_GRID| Border size                                                         28
 RS_GRID| Real space distribution over                                  6 groups
 RS_GRID| Real space distribution along direction                              3
 RS_GRID| Border size                                                         28
 RS_GRID|   Distribution                         Average         Max         Min
 RS_GRID|   Planes                                 141.3         142         141
 RS_GRID|   Distribution                         Average         Max         Min
 RS_GRID|   Planes                                 107.2         108         107
 RS_GRID|   Distribution                         Average         Max         Min
 RS_GRID|   Planes                                  98.7          99          98

 RS_GRID| Information for grid number                                          3
 RS_GRID|   Bounds   1            -75      74                Points:         150
 RS_GRID|   Bounds   2            -75      74                Points:         150
 RS_GRID|   Bounds   3            -75      74                Points:         150
 RS_GRID| Real space fully replicated
 RS_GRID| Group size                                                           1

 RS_GRID| Information for grid number                                          4
 RS_GRID|   Bounds   1            -45      44                Points:          90
 RS_GRID|   Bounds   2            -45      44                Points:          90
 RS_GRID|   Bounds   3            -45      44                Points:          90
 RS_GRID| Real space fully replicated
 RS_GRID| Group size                                                           1

 RS_GRID| Information for grid number                                          5
 RS_GRID|   Bounds   1            -27      26                Points:          54
 RS_GRID|   Bounds   2            -27      26                Points:          54
 RS_GRID|   Bounds   3            -27      26                Points:          54
 RS_GRID| Real space fully replicated
 RS_GRID| Group size                                                           1

 RS_GRID| Information for grid number                                          6
 RS_GRID|   Bounds   1            -15      14                Points:          30
 RS_GRID|   Bounds   2            -15      14                Points:          30
 RS_GRID|   Bounds   3            -15      14                Points:          30
 RS_GRID| Real space fully replicated
 RS_GRID| Group size                                                           1

 Number of electrons:                                                        176
 Number of occupied orbitals:                                                 88
 Number of molecular orbitals:                                               158

 Number of orbital functions:                                                668
 Number of independent orbital functions:                                    668

 Extrapolation method: initial_guess


 SCF WAVEFUNCTION OPTIMIZATION

  Step     Update method      Time    Convergence         Total energy    Change
  ------------------------------------------------------------------------------
     1 NoMix/Diag. 0.40E+00    5.8     0.50872025      -348.8746437265 -3.49E+02
     2 Broy./Diag. 0.40E+00    5.2     0.15501205      -349.3107700422 -4.36E-01
     3 Broy./Diag. 0.40E+00    5.3     0.03150854      -348.8035588505  5.07E-01
     4 Broy./Diag. 0.40E+00    5.4     0.03105971      -348.8873443144 -8.38E-02
     5 Broy./Diag. 0.40E+00    5.4     0.01014268      -348.8600695453  2.73E-02
     6 Broy./Diag. 0.40E+00    5.4     0.00658765      -348.8794184201 -1.93E-02
  SCCS| Total electronic charge density                        -175.999999994632
  SCCS| Total charge density (solute)                            -0.000000004570
  SCCS| Volume of the cell           [bohr^3]                         182205.034
  SCCS|                              [angstrom^3]                      27000.000
  SCCS| Volume of the solute cavity  [bohr^3]                           3860.143
  SCCS|                              [angstrom^3]                        572.014
  SCCS| Surface of the solute cavity [bohr^2]                           1765.554
  SCCS|                              [angstrom^2]                        494.406
  SCCS|
  SCCS|   Step    Average residual    Maximum residual         E(Hartree) [a.u.]
  SCCS|      1          0.00002318          1.80630553          356.491523729194
  SCCS|      2          0.00001974          1.05322566          356.518347602268
  SCCS|      3          0.00000727          0.61843920          356.559013267040
  SCCS|      4          0.00000354          0.36509226          356.586177633287
  SCCS|      5          0.00000195          0.21471709          356.600415311498
  SCCS|      6          0.00000113          0.12497828          356.606899387485
  SCCS|      7          0.00000072          0.07282383          356.610165550116
  SCCS|      8          0.00000046          0.04266988          356.612246167148
  SCCS|      9          0.00000031          0.02507438          356.613667040652
  SCCS|     10          0.00000021          0.01478888          356.614578908371
  SCCS|     11          0.00000014          0.00868219          356.615123211040
  SCCS|     12          0.00000010          0.00505387          356.615426010944
  SCCS|     13          0.00000007          0.00298697          356.615578366594
  SCCS|     14          0.00000005          0.00174541          356.615648492465
  SCCS|     15          0.00000003          0.00102014          356.615685356182
  SCCS|     16          0.00000002          0.00060983          356.615713828820
  SCCS|     17          0.00000002          0.00035840          356.615738387465
  SCCS|     18          0.00000001          0.00020650          356.615755512018
  SCCS|     19          8.1500E-09          1.2623E-04          356.615763772537
  SCCS|     20          5.6305E-09          7.5374E-05          356.615765927622
  SCCS|     21          4.0778E-09          4.2342E-05          356.615765985657
  SCCS|     22          3.0367E-09          2.5885E-05          356.615766374108
  SCCS|     23          2.1551E-09          1.6352E-05          356.615767447811
  SCCS|     24          1.5499E-09          9.3795E-06          356.615768564647
  SCCS|     25          1.1702E-09          5.2118E-06          356.615769194775
  SCCS|     26          8.6493E-10          3.7040E-06          356.615769309282
  SCCS|     27          6.2396E-10          2.2826E-06          356.615769186066
  SCCS|     28          4.6380E-10          1.1105E-06          356.615769086967
  SCCS|     29          3.5530E-10          8.1303E-07          356.615769101463
  SCCS|     30          2.6244E-10          6.2582E-07          356.615769181890
  SCCS|     31          1.9158E-10          3.3822E-07          356.615769250962
  SCCS|     32          1.4679E-10          1.5566E-07          356.615769273178
  SCCS|     33          1.1258E-10          1.8078E-07          356.615769260341
  SCCS|     34          8.2533E-11          1.2603E-07          356.615769240954
  SCCS|     35          6.1310E-11          4.7321E-08          356.615769232907
  SCCS| Iteration cycle converged in 35 steps
  SCCS|
  SCCS| Polarisation charge                                      -0.000631786687
  SCCS|
  SCCS| Hartree energy of solute and solvent [Hartree]        356.61576923683901
  SCCS| Hartree energy of the solute only    [Hartree]        356.56988303578709
  SCCS| Polarisation energy                  [Hartree]          0.04588620105195
  SCCS|                                      [kcal/mol]                   28.794
  SCCS| Cavitation energy                    [Hartree]          0.04130116265701
  SCCS|                                      [kcal/mol]                   25.917
  SCCS| Dispersion free energy               [Hartree]         -0.06560180751531
  SCCS|                                      [kcal/mol]                  -41.166
  SCCS| Repulsion free energy                [Hartree]          0.01120415944677
  SCCS|                                      [kcal/mol]                    7.031
  SCCS| Solvation free energy                [Hartree]          0.03278971564043
  SCCS|                                      [kcal/mol]                   20.576
     7 Broy./Diag. 0.40E+00   72.6     0.36760810      -348.8443445847  3.51E-02
  SCCS| Total electronic charge density                        -175.999999994636
  SCCS| Total charge density (solute)                            -0.000000004575
  SCCS| Volume of the cell           [bohr^3]                         182205.034
  SCCS|                              [angstrom^3]                      27000.000
  SCCS| Volume of the solute cavity  [bohr^3]                           3858.937
  SCCS|                              [angstrom^3]                        571.836
  SCCS| Surface of the solute cavity [bohr^2]                           1765.036
  SCCS|                              [angstrom^2]                        494.260
  SCCS|
  SCCS|   Step    Average residual    Maximum residual         E(Hartree) [a.u.]
  SCCS|      1          0.00000058          0.06340809          356.592898059301
  SCCS|      2          0.00000038          0.03750977          356.594143944942
  SCCS|      3          0.00000024          0.02220880          356.595855937478
  SCCS|      4          0.00000015          0.01316866          356.597136415099
  SCCS|      5          0.00000010          0.00784992          356.597788509160
  SCCS|      6          0.00000006          0.00459454          356.598032699271
  SCCS|      7          0.00000004          0.00270940          356.598127280387
  SCCS|      8          0.00000003          0.00159799          356.598195553799
  SCCS|      9          0.00000002          0.00094740          356.598258191794
  SCCS|     10          0.00000001          0.00056466          356.598305712022
  SCCS|     11          0.00000001          0.00033573          356.598333511615
  SCCS|     12          7.0156E-09          1.9739E-04          356.598345599153
  SCCS|     13          4.8603E-09          1.1907E-04          356.598349108823
  SCCS|     14          3.4008E-09          6.9796E-05          356.598349905746
  SCCS|     15          2.4150E-09          4.0846E-05          356.598350929585
  SCCS|     16          1.6960E-09          2.5219E-05          356.598352603936
  SCCS|     17          1.1791E-09          1.5002E-05          356.598354223310
  SCCS|     18          8.4910E-10          8.4662E-06          356.598355186963
  SCCS|     19          6.0491E-10          5.4681E-06          356.598355459505
  SCCS|     20          4.2285E-10          3.3463E-06          356.598355375494
  SCCS|     21          3.0613E-10          1.8246E-06          356.598355268390
  SCCS|     22          2.2098E-10          1.1563E-06          356.598355274959
  SCCS|     23          1.5677E-10          7.8354E-07          356.598355362573
  SCCS|     24          1.1397E-10          4.4412E-07          356.598355448755
  SCCS|     25          8.2879E-11          2.3780E-07          356.598355487474
  SCCS|     26          5.9875E-11          1.9184E-07          356.598355483932
  SCCS|     27          4.3944E-11          1.2045E-07          356.598355466320
  SCCS|     28          3.2017E-11          5.5387E-08          356.598355456145
  SCCS| Iteration cycle converged in 28 steps
  SCCS|
  SCCS| Polarisation charge                                      -0.000676058703
  SCCS|
  SCCS| Hartree energy of solute and solvent [Hartree]        356.59835545785461
  SCCS| Hartree energy of the solute only    [Hartree]        356.54921138662166
  SCCS| Polarisation energy                  [Hartree]          0.04914407123299
  SCCS|                                      [kcal/mol]                   30.838
  SCCS| Cavitation energy                    [Hartree]          0.04128903315686
  SCCS|                                      [kcal/mol]                   25.909
  SCCS| Dispersion free energy               [Hartree]         -0.06558131969870
  SCCS|                                      [kcal/mol]                  -41.153
  SCCS| Repulsion free energy                [Hartree]          0.01120086896183
  SCCS|                                      [kcal/mol]                    7.029
  SCCS| Solvation free energy                [Hartree]          0.03605265365297
  SCCS|                                      [kcal/mol]                   22.623
     8 Broy./Diag. 0.40E+00   59.7     0.01185339      -348.3666247234  4.78E-01
  SCCS| Total electronic charge density                        -175.999999994644
  SCCS| Total charge density (solute)                            -0.000000004582
  SCCS| Volume of the cell           [bohr^3]                         182205.034
  SCCS|                              [angstrom^3]                      27000.000
  SCCS| Volume of the solute cavity  [bohr^3]                           3856.229
  SCCS|                              [angstrom^3]                        571.434
  SCCS| Surface of the solute cavity [bohr^2]                           1763.937
  SCCS|                              [angstrom^2]                        493.953
  SCCS|
  SCCS|   Step    Average residual    Maximum residual         E(Hartree) [a.u.]
  SCCS|      1          0.00000119          0.14663444          356.560610492408
  SCCS|      2          0.00000080          0.06998458          356.561321761143
  SCCS|      3          0.00000051          0.03335131          356.563926617284
  SCCS|      4          0.00000032          0.01586063          356.566073932496
  SCCS|      5          0.00000022          0.00753749          356.567098462025
  SCCS|      6          0.00000014          0.00429427          356.567371015863
[...]
  SCCS|     15          4.2955E-13          1.0763E-07          356.539131244837
  SCCS|     16          2.9208E-13          6.3856E-08          356.539131248354
  SCCS| Iteration cycle converged in 16 steps
  SCCS|
  SCCS| Polarisation charge                                      -0.000816062433
  SCCS|
  SCCS| Hartree energy of solute and solvent [Hartree]        356.53913125046131
  SCCS| Hartree energy of the solute only    [Hartree]        356.48342387226933
  SCCS| Polarisation energy                  [Hartree]          0.05570737819196
  SCCS|                                      [kcal/mol]                   34.957
  SCCS| Cavitation energy                    [Hartree]          0.04123414959268
  SCCS|                                      [kcal/mol]                   25.875
  SCCS| Dispersion free energy               [Hartree]         -0.06547592651143
  SCCS|                                      [kcal/mol]                  -41.087
  SCCS| Repulsion free energy                [Hartree]          0.01118598017506
  SCCS|                                      [kcal/mol]                    7.019
  SCCS| Solvation free energy                [Hartree]          0.04265158144827
  SCCS|                                      [kcal/mol]                   26.764
    29 Broy./Diag. 0.40E+00   38.1     0.00000985      -348.8189325848  6.68E-06

  *** SCF run converged in    29 steps ***


  Electronic density on regular grids:       -175.9999999947        0.0000000053
  Core density on regular grids:              175.9999999901       -0.0000000099
  Total charge density on r-space grids:       -0.0000000046
  Total charge density g-space grids:          -0.0000000046

  Overlap energy of the core charge distribution:               0.00000939286933
  Self energy of the core charge distribution:               -876.50113603632508
  Core Hamiltonian energy:                                    259.23166458920673
  Hartree energy:                                             356.48342387226933
  Exchange-correlation energy:                                -88.02690214417042
  Dispersion energy:                                           -0.06169963686234

  SCCS| Hartree energy of solute and solvent [Hartree]        356.53913125046131
  SCCS| Hartree energy of the solute only    [Hartree]        356.48342387226933
  SCCS| Polarisation energy                  [Hartree]          0.05570737819196
  SCCS|                                      [kcal/mol]                   34.957
  SCCS| Cavitation energy                    [Hartree]          0.04123414959268
  SCCS|                                      [kcal/mol]                   25.875
  SCCS| Dispersion free energy               [Hartree]         -0.06547592651143
  SCCS|                                      [kcal/mol]                  -41.087
  SCCS| Repulsion free energy                [Hartree]          0.01118598017506
  SCCS|                                      [kcal/mol]                    7.019
  SCCS| Solvation free energy                [Hartree]          0.04265158144827
  SCCS|                                      [kcal/mol]                   26.764

  Total energy:                                              -348.81893258482052

   Calculate DOS at iteration step                                   0

 !-----------------------------------------------------------------------------!
                     Mulliken Population Analysis

 #  Atom  Element  Kind  Atomic population                           Net charge
       1     O        1          6.387351                             -0.387351
       2     O        1          6.063399                             -0.063399
       3     O        1          6.057556                             -0.057556
       4     N        2          5.161639                             -0.161639
       5     C        3          4.312455                             -0.312455
       6     H        4          0.822223                              0.177777
       7     C        3          4.284429                             -0.284429
       8     H        4          0.801336                              0.198664
       9     C        3          3.800605                              0.199395
      10     C        3          4.318182                             -0.318182
      11     H        4          0.800414                              0.199586
      12     C        3          4.246891                             -0.246891
      13     H        4          0.815058                              0.184942
      14     C        3          3.651887                              0.348113
      15     C        3          3.974410                              0.025590
      16     H        4          0.815739                              0.184261
      17     C        3          4.235516                             -0.235516
      18     H        4          0.851692                              0.148308
      19     C        3          3.763206                              0.236794
      20     C        3          3.722552                              0.277448
      21     C        3          4.302596                             -0.302596
      22     H        4          0.810941                              0.189059
      23     C        3          4.341272                             -0.341272
      24     H        4          0.812182                              0.187818
      25     C        3          3.767828                              0.232172
      26     C        3          4.321077                             -0.321077
      27     H        4          0.820097                              0.179903
      28     C        3          4.293662                             -0.293662
      29     H        4          0.829277                              0.170723
      30     C        3          4.101510                             -0.101510
      31     H        4          0.828656                              0.171344
      32     C        3          3.573058                              0.426942
      33     C        3          4.310416                             -0.310416
      34     H        4          0.802760                              0.197240
      35     C        3          4.298381                             -0.298381
      36     H        4          0.800633                              0.199367
      37     C        3          3.817014                              0.182986
      38     C        3          4.217736                             -0.217736
      39     H        4          0.805732                              0.194268
      40     C        3          4.274233                             -0.274233
      41     H        4          0.814884                              0.185116
      42     C        3          3.905025                              0.094975
      43     F        5          7.067309                             -0.067309
      44     F        5          7.044827                             -0.044827
      45     F        5          7.065735                             -0.065735
      46     C        3          3.905092                              0.094908
      47     F        5          7.066105                             -0.066105
      48     F        5          7.044243                             -0.044243
      49     F        5          7.071183                             -0.071183
 # Total charge                            176.000000                 -0.000000

 !-----------------------------------------------------------------------------!

 !-----------------------------------------------------------------------------!
                           Hirshfeld Charges

  #Atom  Element  Kind  Ref Charge     Population                    Net charge
      1       O      1       6.000          6.582                        -0.582
      2       O      1       6.000          6.391                        -0.391
      3       O      1       6.000          6.390                        -0.390
      4       N      2       5.000          5.378                        -0.378
      5       C      3       4.000          4.411                        -0.411
      6       H      4       1.000          0.540                         0.460
      7       C      3       4.000          4.406                        -0.406
      8       H      4       1.000          0.533                         0.467
      9       C      3       4.000          3.799                         0.201
     10       C      3       4.000          4.406                        -0.406
     11       H      4       1.000          0.533                         0.467
     12       C      3       4.000          4.414                        -0.414
     13       H      4       1.000          0.539                         0.461
     14       C      3       4.000          3.992                         0.008
     15       C      3       4.000          4.363                        -0.363
     16       H      4       1.000          0.542                         0.458
     17       C      3       4.000          4.453                        -0.453
     18       H      4       1.000          0.544                         0.456
     19       C      3       4.000          3.727                         0.273
     20       C      3       4.000          4.015                        -0.015
     21       C      3       4.000          4.398                        -0.398
     22       H      4       1.000          0.539                         0.461
     23       C      3       4.000          4.428                        -0.428
     24       H      4       1.000          0.539                         0.461
     25       C      3       4.000          3.880                         0.120
     26       C      3       4.000          4.447                        -0.447
     27       H      4       1.000          0.540                         0.460
     28       C      3       4.000          4.423                        -0.423
     29       H      4       1.000          0.542                         0.458
     30       C      3       4.000          4.248                        -0.248
     31       H      4       1.000          0.546                         0.454
     32       C      3       4.000          3.997                         0.003
     33       C      3       4.000          4.390                        -0.390
     34       H      4       1.000          0.537                         0.463
     35       C      3       4.000          4.406                        -0.406
     36       H      4       1.000          0.533                         0.467
     37       C      3       4.000          3.796                         0.204
     38       C      3       4.000          4.396                        -0.396
     39       H      4       1.000          0.533                         0.467
     40       C      3       4.000          4.412                        -0.412
     41       H      4       1.000          0.538                         0.462
     42       C      3       4.000          2.967                         1.033
     43       F      5       7.000          7.347                        -0.347
     44       F      5       7.000          7.300                        -0.300
     45       F      5       7.000          7.329                        -0.329
     46       C      3       4.000          2.967                         1.033
     47       F      5       7.000          7.331                        -0.331
     48       F      5       7.000          7.299                        -0.299
     49       F      5       7.000          7.341                        -0.341

  Total Charge                                                            0.091
 !-----------------------------------------------------------------------------!
  
  Eigenvalues of the occupied subspace spin            1
 ---------------------------------------------
      -1.23386109      -1.23233206      -1.14947247      -1.14852182
      -1.13971091      -1.13860647      -1.02829296      -1.02670116
      -0.95332886      -0.87168606      -0.80496657      -0.80379598
      -0.78506057      -0.74396467      -0.72649739      -0.70408184
      -0.69802747      -0.69742212      -0.68833457      -0.68675404
      -0.65722089      -0.64766419      -0.61604526      -0.60223123
      -0.58664544      -0.57645284      -0.57600317      -0.56140179
      -0.55924666      -0.55683754      -0.55419587      -0.55213384
      -0.55122038      -0.53487403      -0.52333473      -0.51336598
      -0.49316923      -0.47991378      -0.46985467      -0.46082993
      -0.44750811      -0.43827841      -0.43638746      -0.42812612
      -0.42594352      -0.42170207      -0.42047018      -0.41957972
      -0.41703458      -0.41323243      -0.40417046      -0.40365525
      -0.40318941      -0.40201032      -0.39515391      -0.39329368
      -0.39309834      -0.39268425      -0.38339384      -0.38205756
      -0.38035677      -0.37604068      -0.37385385      -0.36962232
      -0.36525002      -0.36519801      -0.35985897      -0.35423622
      -0.35088146      -0.34842493      -0.34388510      -0.33704421
      -0.33038881      -0.32987442      -0.32151989      -0.31277924
      -0.30335308      -0.29739750      -0.29652053      -0.28300416
      -0.26151592      -0.24945209      -0.24907176      -0.24271415
      -0.23376393      -0.22357533      -0.21879526      -0.21096048
 Fermi Energy [eV] :   -5.740527
  
  Lowest eigenvalues of the unoccupied subspace spin            1
 ---------------------------------------------
      -0.12350912

 *******************************************************************************
 **                                                                           **
 **         ######## #######   #######   ######## #######  ########           **
 **            ##    ##     ## ##     ## ##       ##   ##     ##              **
 **            ##    ##     ## ##     ## ######   #######     ##              **
 **            ##    ##     ## ##     ## ##       ##          ##              **
 **            ##    #######   #######   ##       ##          ##              **
 **                                                                           **
 *******************************************************************************
 KERNEL|                                                                    FULL
 FUNCTIONAL| PBE:
 FUNCTIONAL| J.P.Perdew, K.Burke, M.Ernzerhof, Phys. Rev. Letter, vol. 77, n 18,
 FUNCTIONAL|  pp. 3865-3868, (1996){spin unpolarized}                           
 KERNEL| Spin symmetry of excitations                                    Singlet
 TDDFPT| Number of states calculated                                          50
 TDDFPT| Number of Davidson iterations                                       100
 TDDFPT| Davidson iteration convergence                                0.367E-05
 TDDFPT| Max. number of Krylov space vectors                                5000
 TDDFPT| Molecular Orbitals:        Spin       AOs       Occ      Virt     Total
 TDDFPT|                               1       668        88       580       668
 
 -------------------------------------------------------------------------------
 -                            TDDFPT Initial Guess                             -
 -------------------------------------------------------------------------------
          State         Occupied      ->      Virtual          Excitation
          number         orbital              orbital          energy (eV)
 -------------------------------------------------------------------------------
             1               88                   89              2.37967
             2               87                   89              2.59287
             3               86                   89              2.72294
             4               88                   90              2.99271
             5               85                   89              3.00019
             6               87                   90              3.20590
             7               84                   89              3.24373
             8               86                   90              3.33598
             9               83                   89              3.41673
            10               82                   89              3.42708
            11               85                   90              3.61322
            12               81                   89              3.75536
            13               84                   90              3.85677
            14               88                   91              4.02451
            15               83                   90              4.02977
            16               82                   90              4.04012
            17               88                   92              4.13451
            18               88                   93              4.18780
            19               87                   91              4.23771
            20               88                   94              4.33370
            21               80                   89              4.34008
            22               87                   92              4.34770
            23               86                   91              4.36778
            24               81                   90              4.36839
            25               87                   93              4.40099
            26               86                   92              4.47778
            27               86                   93              4.53106
            28               87                   94              4.54689
            29               85                   91              4.64503
            30               86                   94              4.67696
            31               79                   89              4.70788
            32               78                   89              4.73174
            33               85                   92              4.75502
            34               85                   93              4.80831
            35               84                   91              4.88858
            36               77                   89              4.89380
            37               80                   90              4.95312
            38               85                   94              4.95421
            39               84                   92              4.99857
            40               84                   93              5.05186
            41               83                   91              5.06158
            42               88                   95              5.07085
            43               82                   91              5.07192
            44               76                   89              5.15030
            45               83                   92              5.17157
            46               82                   92              5.18192
            47               84                   94              5.19776
            48               83                   93              5.22486
            49               82                   93              5.23521
            50               87                   95              5.28404

      Number of active states:                                      51040
 -------------------------------------------------------------------------------
 
 -------------------------------------------------------------------------------
 -                      TDDFPT WAVEFUNCTION OPTIMIZATION                       -
 -------------------------------------------------------------------------------

          Step            Time         Convergence           Conv. states
 -------------------------------------------------------------------------------
