WARNING: Linux kernel CMA support was requested via the
btl_vader_single_copy_mechanism MCA variable, but CMA support is
not available due to restrictive ptrace settings.

The vader shared memory BTL will fall back on another single-copy
mechanism if one is available. This may result in lower performance.

  Local host: superquantumcomputerpromax
--------------------------------------------------------------------------

     Program PWSCF v.7.2 starts on  8Jan2024 at 15:29:34 

     This program is part of the open-source Quantum ESPRESSO suite
     for quantum simulation of materials; please cite
         "P. Giannozzi et al., J. Phys.:Condens. Matter 21 395502 (2009);
         "P. Giannozzi et al., J. Phys.:Condens. Matter 29 465901 (2017);
         "P. Giannozzi et al., J. Chem. Phys. 152 154105 (2020);
          URL http://www.quantum-espresso.org", 
     in publications or presentations arising from this work. More details at
     http://www.quantum-espresso.org/quote

     Parallel version (MPI & OpenMP), running on     360 processor cores
     Number of MPI processes:                90
     Threads/MPI process:                     4

     MPI processes distributed on     1 nodes
     709740 MiB available memory on the printing compute node when the environment starts

     Reading input from 4amp15_pbe0_scf.in

     Current dimensions of program PWSCF are:
     Max number of different atomic species (ntypx) = 10
     Max number of k-points (npk) =  40000
     Max angular momentum in pseudopotentials (lmaxx) =  4

     IMPORTANT: XC functional enforced from input :
     Exchange-correlation= PBE0
                           (   6   4   8   4   0   0   0)
     EXX-fraction              =        0.25
     Any further DFT definition will be discarded
     Please, verify this is what you really want


     gamma-point specific algorithms are used
     Message from routine setup:
     using ibrav=0 with symmetry is DISCOURAGED, use correct ibrav instead

     R & G space division:  proc/nbgrp/npool/nimage =      90
     Subspace diagonalization in iterative solution of the eigenvalue problem:
     one sub-group per band group will be used
     ELPA distributed-memory algorithm (size of sub-group:  3*  3 procs)

     EXX: q-point mesh:     1    1    1
     EXX: grid of k+q points same as grid of k-points

     Parallelization info
     --------------------
     sticks:   dense  smooth     PW     G-vecs:    dense   smooth      PW
     Min         114     114     27                18148    18148    2260
     Max         116     116     30                18196    18196    2292
     Sum       10419   10419   2595              1636139  1636139  204437

     Using Slab Decomposition



     bravais-lattice index     =            0
     lattice parameter (alat)  =      30.7969  a.u.
     unit-cell volume          =   12112.4072 (a.u.)^3
     number of atoms/cell      =          196
     number of atomic types    =            4
     number of electrons       =       560.00
     number of Kohn-Sham states=          286
     kinetic-energy cutoff     =     100.0000  Ry
     charge density cutoff     =     400.0000  Ry
     cutoff for Fock operator  =     200.0000  Ry
     scf convergence threshold =      1.0E-07
     mixing beta               =       0.7000
     number of iterations used =            8  local-TF  mixing
     Exchange-correlation= PBE0
                           (   6   4   8   4   0   0   0)
     EXX-fraction              =        0.25

     celldm(1)=  30.796867  celldm(2)=   0.000000  celldm(3)=   0.000000
     celldm(4)=   0.000000  celldm(5)=   0.000000  celldm(6)=   0.000000

     crystal axes: (cart. coord. in units of alat)
               a(1) = (   1.000000   0.000000   0.000000 )  
               a(2) = (   0.000000   0.345487   0.000000 )  
               a(3) = (  -0.937552   0.000000   1.200271 )  

     reciprocal axes: (cart. coord. in units 2 pi/alat)
               b(1) = (  1.000000 -0.000000  0.781117 )  
               b(2) = (  0.000000  2.894466 -0.000000 )  
               b(3) = (  0.000000  0.000000  0.833145 )  


     PseudoPot. # 1 for O  read from file:
     /home/yongkeat1017/miniconda3/pp/O_ONCV_PBE-1.2.upf
     MD5 check sum: e36c48deb68f4e355fffe4602be2c42c
     Pseudo is Norm-conserving, Zval =  6.0
     Generated using ONCVPSP code by D. R. Hamann
     Using radial grid of  602 points,  4 beta functions with: 
                l(1) =   0
                l(2) =   0
                l(3) =   1
                l(4) =   1

     PseudoPot. # 2 for N  read from file:
     /home/yongkeat1017/miniconda3/pp/N_ONCV_PBE-1.2.upf
     MD5 check sum: c233fa8df51455e992258b7c3dee8a9f
     Pseudo is Norm-conserving, Zval =  5.0
     Generated using ONCVPSP code by D. R. Hamann
     Using radial grid of  602 points,  4 beta functions with: 
                l(1) =   0
                l(2) =   0
                l(3) =   1
                l(4) =   1

     PseudoPot. # 3 for C  read from file:
     /home/yongkeat1017/miniconda3/pp/C_ONCV_PBE-1.2.upf
     MD5 check sum: 1a5f83a7b1f58d24996abe00ed223ac6
     Pseudo is Norm-conserving, Zval =  4.0
     Generated using ONCVPSP code by D. R. Hamann
     Using radial grid of  602 points,  4 beta functions with: 
                l(1) =   0
                l(2) =   0
                l(3) =   1
                l(4) =   1

     PseudoPot. # 4 for H  read from file:
     /home/yongkeat1017/miniconda3/pp/H_ONCV_PBE-1.2.upf
     MD5 check sum: bf21e08b90ac4ce7d0149ac4e8138190
     Pseudo is Norm-conserving, Zval =  1.0
     Generated using ONCVPSP code by D. R. Hamann
     Using radial grid of  602 points,  2 beta functions with: 
                l(1) =   0
                l(2) =   0

     atomic species   valence    mass     pseudopotential
        O              6.00    16.00000     O ( 1.00)
        N              5.00    14.00000     N ( 1.00)
        C              4.00    12.00000     C ( 1.00)
        H              1.00     1.00000     H ( 1.00)

      4 Sym. Ops., with inversion, found ( 2 have fractional translation)



   Cartesian axes

     site n.     atom                  positions (alat units)
         1           O   tau(   1) = (  -0.2805311   0.2358537   0.5772252  )
         2           O   tau(   2) = (   0.0027668   0.2648212   0.6664491  )
         3           O   tau(   3) = (   0.2339177   0.3264818   0.7371317  )
         4           N   tau(   4) = (  -0.4479273   0.1676454   0.7856952  )
         5           C   tau(   5) = (  -0.1073976   0.0894859   0.7966172  )
         6           H   tau(   6) = (  -0.1431855   0.1422582   0.8360925  )
         7           C   tau(   7) = (  -0.0597223   0.0428533   0.8305646  )
         8           H   tau(   8) = (  -0.0475699   0.0508899   0.9047196  )
         9           C   tau(   9) = (  -0.0233716   0.3340692   0.7935362  )
        10           H   tau(  10) = (   0.0245436   0.2883979   0.8286098  )
        11           C   tau(  11) = (  -0.0315136   0.3196489   0.7144825  )
        12           C   tau(  12) = (  -0.0848283   0.0278648   0.6846002  )
        13           H   tau(  13) = (  -0.0965828   0.0191130   0.6109047  )
        14           C   tau(  14) = (  -0.1258387   0.0878045   0.7179234  )
        15           C   tau(  15) = (  -0.1767712   0.1397488   0.6815778  )
        16           H   tau(  16) = (  -0.1894817   0.1247216   0.6090422  )
        17           C   tau(  17) = (  -0.2194459   0.2036622   0.6955539  )
        18           H   tau(  18) = (  -0.2087315   0.2215859   0.7665234  )
        19           C   tau(  19) = (  -0.2714904   0.2523425   0.6529050  )
        20           C   tau(  20) = (  -0.3162028   0.3194752   0.6875048  )
        21           C   tau(  21) = (  -0.3666149   0.0217868   0.6469186  )
        22           H   tau(  22) = (  -0.3722632   0.0041526   0.5736809  )
        23           C   tau(  23) = (  -0.4066676   0.0781752   0.6739179  )
        24           H   tau(  24) = (  -0.4511816   0.1187453   0.6281034  )
        25           C   tau(  25) = (  -0.4077567   0.1040986   0.7507018  )
        26           C   tau(  26) = (  -0.3555563   0.0568333   0.7911754  )
        27           H   tau(  27) = (  -0.3485398   0.0762338   0.8634926  )
        28           C   tau(  28) = (  -0.3162472   0.3453711   0.7635742  )
        29           H   tau(  29) = (  -0.2712420   0.3063121   0.8096904  )
        30           C   tau(  30) = (  -0.5184692   0.1864951   0.7663328  )
        31           H   tau(  31) = (  -0.5494352   0.1381554   0.7150591  )
        32           C   tau(  32) = (  -0.5697167   0.2473598   0.7881230  )
        33           C   tau(  33) = (   0.3571454   0.2639110   0.7599800  )
        34           H   tau(  34) = (   0.3322566   0.2139998   0.7090587  )
        35           C   tau(  35) = (   0.3059183   0.3229197   0.7750344  )
        36           C   tau(  36) = (   0.3377886   0.0259260   0.8306947  )
        37           H   tau(  37) = (   0.2950791   0.0838119   0.8515028  )
        38           C   tau(  38) = (  -0.5936076   0.0153183   0.8616031  )
        39           H   tau(  39) = (  -0.5695770   0.0644375   0.9139532  )
        40           C   tau(  40) = (  -0.5498196   0.3042022   0.8422867  )
        41           H   tau(  41) = (  -0.4817264   0.2956056   0.8727174  )
        42           C   tau(  42) = (   0.0541717   0.2141400   0.7014222  )
        43           H   tau(  43) = (   0.0818176   0.1687474   0.6563693  )
        44           H   tau(  44) = (   0.0269401   0.1737377   0.7508179  )
        45           H   tau(  45) = (   0.1091179   0.2433315   0.7312114  )
        46           C   tau(  46) = (   0.1932657   0.0494856   0.7463896  )
        47           H   tau(  47) = (   0.1358638   0.0522342   0.7073286  )
        48           H   tau(  48) = (   0.2281286   0.1068365   0.7285361  )
        49           H   tau(  49) = (   0.1707165   0.0620776   0.8103072  )
        50           O   tau(  50) = (   0.8117551   0.0631103   0.0229102  )
        51           O   tau(  51) = (  -0.4090949   0.0920778   1.1339573  )
        52           O   tau(  52) = (  -0.6402457   0.1537384   1.0632746  )
        53           N   tau(  53) = (   0.0415993   0.3403889   1.0147111  )
        54           C   tau(  54) = (  -0.2989304   0.2622294   1.0037892  )
        55           H   tau(  55) = (  -0.2631425   0.3150017   0.9643138  )
        56           C   tau(  56) = (  -0.3466058   0.2155968   0.9698418  )
        57           H   tau(  57) = (  -0.3587581   0.2236334   0.8956867  )
        58           C   tau(  58) = (  -0.3829564   0.1613257   1.0068702  )
        59           H   tau(  59) = (  -0.4308716   0.1156545   0.9717965  )
        60           C   tau(  60) = (  -0.3748144   0.1469054   1.0859239  )
        61           C   tau(  61) = (  -0.3214997   0.2006083   1.1158062  )
        62           H   tau(  62) = (  -0.3097452   0.1918565   1.1895017  )
        63           C   tau(  63) = (  -0.2804893   0.2605479   1.0824830  )
        64           C   tau(  64) = (  -0.2295568   0.3124923   1.1188286  )
        65           H   tau(  65) = (  -0.2168463   0.2974651   1.1913642  )
        66           C   tau(  66) = (  -0.1868821   0.0309188   1.1048525  )
        67           H   tau(  67) = (  -0.1975965   0.0488424   1.0338829  )
        68           C   tau(  68) = (  -0.1348376   0.0795991   1.1475014  )
        69           C   tau(  69) = (  -0.0901252   0.1467318   1.1129015  )
        70           C   tau(  70) = (  -0.0397131   0.1945302   1.1534877  )
        71           H   tau(  71) = (   0.9034872   0.1768961   0.0264546  )
        72           C   tau(  72) = (   0.0003396   0.2509187   1.1264885  )
        73           H   tau(  73) = (   0.0448536   0.2914887   1.1723030  )
        74           C   tau(  74) = (   0.0014287   0.2768420   1.0497046  )
        75           C   tau(  75) = (  -0.0507717   0.2295768   1.0092310  )
        76           H   tau(  76) = (  -0.0577882   0.2489772   0.9369138  )
        77           C   tau(  77) = (  -0.0900808   0.1726277   1.0368322  )
        78           H   tau(  78) = (  -0.1350860   0.1335686   0.9907160  )
        79           C   tau(  79) = (   0.1121412   0.0137516   1.0340735  )
        80           H   tau(  80) = (   0.1431072   0.3108989   1.0853473  )
        81           C   tau(  81) = (   0.1633887   0.0746163   1.0122834  )
        82           C   tau(  82) = (  -0.7634734   0.0911676   1.0404263  )
        83           H   tau(  83) = (  -0.7385846   0.0412563   1.0913476  )
        84           C   tau(  84) = (  -0.7122463   0.1501762   1.0253720  )
        85           C   tau(  85) = (  -0.7441167   0.1986694   0.9697117  )
        86           H   tau(  86) = (  -0.7014071   0.2565553   0.9489035  )
        87           C   tau(  87) = (   0.1872796   0.1880618   0.9388033  )
        88           H   tau(  88) = (   0.1632489   0.2371809   0.8864531  )
        89           C   tau(  89) = (   0.1434916   0.1314587   0.9581197  )
        90           H   tau(  90) = (   0.0753983   0.1228622   0.9276890  )
        91           C   tau(  91) = (  -0.4604997   0.0413965   1.0989842  )
        92           H   tau(  92) = (  -0.4881456  -0.0039961   1.1440371  )
        93           H   tau(  93) = (  -0.4332681   0.0009943   1.0495884  )
        94           H   tau(  94) = (  -0.5154460   0.0705881   1.0691949  )
        95           C   tau(  95) = (  -0.5995937   0.2222290   1.0540168  )
        96           H   tau(  96) = (  -0.5421919   0.2249776   1.0930778  )
        97           H   tau(  97) = (  -0.6344566   0.2795799   1.0718703  )
        98           H   tau(  98) = (  -0.5770445   0.2348211   0.9900991  )
        99           O   tau(  99) = (   0.3429791   0.1096332   0.6230457  )
       100           O   tau( 100) = (   0.0596811   0.0806657   0.5338219  )
       101           O   tau( 101) = (  -0.1714697   0.0190051   0.4631392  )
       102           N   tau( 102) = (   0.5103753   0.1778415   0.4145757  )
       103           C   tau( 103) = (   0.1698456   0.2560010   0.4036537  )
       104           H   tau( 104) = (   0.2056335   0.2032287   0.3641784  )
       105           C   tau( 105) = (   0.1221703   0.3026336   0.3697064  )
       106           H   tau( 106) = (   0.1100179   0.2945970   0.2955513  )
       107           C   tau( 107) = (   0.0858196   0.0114177   0.4067347  )
       108           H   tau( 108) = (   0.0379044   0.0570890   0.3716611  )
       109           C   tau( 109) = (   0.0939616   0.0258380   0.4857884  )
       110           C   tau( 110) = (   0.1472763   0.3176221   0.5156708  )
       111           H   tau( 111) = (   0.1590308   0.3263739   0.5893662  )
       112           C   tau( 112) = (   0.1882867   0.2576824   0.4823476  )
       113           C   tau( 113) = (   0.2392192   0.2057381   0.5186931  )
       114           H   tau( 114) = (   0.2519297   0.2207653   0.5912287  )
       115           C   tau( 115) = (   0.2818939   0.1418247   0.5047170  )
       116           H   tau( 116) = (   0.2711795   0.1239010   0.4337475  )
       117           C   tau( 117) = (   0.3339384   0.0931444   0.5473659  )
       118           C   tau( 118) = (   0.3786508   0.0260117   0.5127661  )
       119           C   tau( 119) = (   0.4290629   0.3237001   0.5533523  )
       120           H   tau( 120) = (   0.4347112   0.3413343   0.6265900  )
       121           C   tau( 121) = (   0.4691156   0.2673117   0.5263530  )
       122           H   tau( 122) = (   0.5136296   0.2267416   0.5721675  )
       123           C   tau( 123) = (   0.4702047   0.2413883   0.4495691  )
       124           C   tau( 124) = (   0.4180043   0.2886536   0.4090955  )
       125           H   tau( 125) = (   0.4109878   0.2692531   0.3367783  )
       126           C   tau( 126) = (   0.3786952   0.0001158   0.4366967  )
       127           H   tau( 127) = (   0.3336900   0.0391748   0.3905805  )
       128           C   tau( 128) = (   0.5809172   0.1589918   0.4339381  )
       129           H   tau( 129) = (   0.6118832   0.2073315   0.4852119  )
       130           C   tau( 130) = (   0.6321647   0.0981271   0.4121479  )
       131           C   tau( 131) = (  -0.2946974   0.0815759   0.4402909  )
       132           H   tau( 132) = (  -0.2698086   0.1314871   0.4912122  )
       133           C   tau( 133) = (  -0.2434703   0.0225672   0.4252365  )
       134           C   tau( 134) = (  -0.2753406   0.3195609   0.3695762  )
       135           H   tau( 135) = (  -0.2326311   0.2616750   0.3487681  )
       136           C   tau( 136) = (   0.6560556   0.3301686   0.3386678  )
       137           H   tau( 137) = (   0.6320250   0.2810494   0.2863177  )
       138           C   tau( 138) = (   0.6122676   0.0412847   0.3579842  )
       139           H   tau( 139) = (   0.5441743   0.0498813   0.3275535  )
       140           C   tau( 140) = (   0.0082763   0.1313469   0.4988487  )
       141           H   tau( 141) = (  -0.0193696   0.1767395   0.5439017  )
       142           H   tau( 142) = (   0.0355079   0.1717492   0.4494530  )
       143           H   tau( 143) = (  -0.0466699   0.1021554   0.4690595  )
       144           C   tau( 144) = (  -0.1308177   0.2960013   0.4538813  )
       145           H   tau( 145) = (  -0.0734159   0.2932527   0.4929423  )
       146           H   tau( 146) = (  -0.1656806   0.2386504   0.4717348  )
       147           H   tau( 147) = (  -0.1082685   0.2834093   0.3899637  )
       148           O   tau( 148) = (  -0.7493071   0.2823766   1.1773607  )
       149           O   tau( 149) = (   0.4715428   0.2534091   0.0663136  )
       150           O   tau( 150) = (   0.7026937   0.1917485   0.1369963  )
       151           N   tau( 151) = (   0.0208487   0.0050980   0.1855598  )
       152           C   tau( 152) = (   0.3613784   0.0832575   0.1964817  )
       153           H   tau( 153) = (   0.3255905   0.0304852   0.2359571  )
       154           C   tau( 154) = (   0.4090537   0.1298901   0.2304291  )
       155           H   tau( 155) = (   0.4212061   0.1218535   0.3045842  )
       156           C   tau( 156) = (   0.4454044   0.1841612   0.1934007  )
       157           H   tau( 157) = (   0.4933196   0.2298324   0.2284744  )
       158           C   tau( 158) = (   0.4372624   0.1985815   0.1143470  )
       159           C   tau( 159) = (   0.3839477   0.1448786   0.0844647  )
       160           H   tau( 160) = (   0.3721932   0.1536304   0.0107692  )
       161           C   tau( 161) = (   0.3429373   0.0849390   0.1177879  )
       162           C   tau( 162) = (   0.2920048   0.0329946   0.0814423  )
       163           H   tau( 163) = (   0.2792943   0.0480218   0.0089067  )
       164           C   tau( 164) = (   0.2493301   0.3145681   0.0954184  )
       165           H   tau( 165) = (   0.2600445   0.2966445   0.1663880  )
       166           C   tau( 166) = (   0.1972856   0.2658878   0.0527695  )
       167           C   tau( 167) = (   0.1525732   0.1987551   0.0873694  )
       168           C   tau( 168) = (   0.1021611   0.1509567   0.0467832  )
       169           H   tau( 169) = (  -0.8410392   0.1685908   1.1738163  )
       170           C   tau( 170) = (   0.0621084   0.0945682   0.0737824  )
       171           H   tau( 171) = (   0.0175944   0.0539982   0.0279679  )
       172           C   tau( 172) = (   0.0610193   0.0686449   0.1505663  )
       173           C   tau( 173) = (   0.1132197   0.1159101   0.1910399  )
       174           H   tau( 174) = (   0.1202362   0.0965097   0.2633572  )
       175           C   tau( 175) = (   0.1525288   0.1728592   0.1634387  )
       176           H   tau( 176) = (   0.1975340   0.2119183   0.2095549  )
       177           C   tau( 177) = (  -0.0496932   0.3317353   0.1661974  )
       178           H   tau( 178) = (  -0.0806592   0.0345880   0.1149236  )
       179           C   tau( 179) = (  -0.1009407   0.2708706   0.1879875  )
       180           C   tau( 180) = (   0.8259214   0.2543193   0.1598446  )
       181           H   tau( 181) = (   0.8010326   0.3042306   0.1089233  )
       182           C   tau( 182) = (   0.7746943   0.1953107   0.1748989  )
       183           C   tau( 183) = (   0.8065646   0.1468175   0.2305592  )
       184           H   tau( 184) = (   0.7638551   0.0889316   0.2513674  )
       185           C   tau( 185) = (  -0.1248316   0.1574251   0.2614676  )
       186           H   tau( 186) = (  -0.1008010   0.1083060   0.3138178  )
       187           C   tau( 187) = (  -0.0810436   0.2140282   0.2421512  )
       188           H   tau( 188) = (  -0.0129503   0.2226247   0.2725819  )
       189           C   tau( 189) = (   0.5229477   0.3040904   0.1012867  )
       190           H   tau( 190) = (   0.5505936   0.3494830   0.0562338  )
       191           H   tau( 191) = (   0.4957161   0.3444926   0.1506825  )
       192           H   tau( 192) = (   0.5778939   0.2748988   0.1310760  )
       193           C   tau( 193) = (   0.6620417   0.1232579   0.1462541  )
       194           H   tau( 194) = (   0.6046399   0.1205093   0.1071931  )
       195           H   tau( 195) = (   0.6969046   0.0659070   0.1284007  )
       196           H   tau( 196) = (   0.6394925   0.1106658   0.2101718  )

     number of k points=     1
                       cart. coord. in units 2pi/alat
        k(    1) = (   0.0000000   0.0000000   0.0000000), wk =   2.0000000

     Dense  grid:   818070 G-vectors     FFT dimensions: ( 200,  72, 300)

     Estimated max dynamical RAM per process >     125.50 MB

     Estimated total dynamical RAM >      11.03 GB
     EXX: ACE will be initialized later

     Initial potential from superposition of free atoms

     starting charge     559.1302, renormalised to     560.0000
     Starting wfcs are random

     total cpu time spent up to now is        2.4 secs

     per-process dynamical memory:    47.8 Mb

     Self-consistent Calculation

     iteration #  1     ecut=   100.00 Ry     beta= 0.70
     Davidson diagonalization with overlap
[superquantumcomputerpromax:05104] 89 more processes have sent help message help-btl-vader.txt / cma-permission-denied
[superquantumcomputerpromax:05104] Set MCA parameter "orte_base_help_aggregate" to 0 to see all help / error messages
     ethr =  1.00E-02,  avg # of iterations = 14.0

     total cpu time spent up to now is       17.0 secs

     total energy              =   -1650.93911679 Ry
     estimated scf accuracy    <      26.19600876 Ry

     iteration #  2     ecut=   100.00 Ry     beta= 0.70
     Davidson diagonalization with overlap
     ethr =  4.68E-03,  avg # of iterations =  2.0

     total cpu time spent up to now is       19.9 secs

     total energy              =   -1649.14766073 Ry
     estimated scf accuracy    <       6.31902411 Ry

     iteration #  3     ecut=   100.00 Ry     beta= 0.70
     Davidson diagonalization with overlap
     ethr =  1.13E-03,  avg # of iterations =  4.0

     total cpu time spent up to now is       24.3 secs

     total energy              =   -1650.79259057 Ry
     estimated scf accuracy    <       0.45611282 Ry

     iteration #  4     ecut=   100.00 Ry     beta= 0.70
     Davidson diagonalization with overlap
     ethr =  8.14E-05,  avg # of iterations =  8.0

     total cpu time spent up to now is       29.7 secs

     total energy              =   -1650.85531020 Ry
     estimated scf accuracy    <       0.14342142 Ry

     iteration #  5     ecut=   100.00 Ry     beta= 0.70
     Davidson diagonalization with overlap
     ethr =  2.56E-05,  avg # of iterations =  4.0

     total cpu time spent up to now is       34.3 secs

     total energy              =   -1650.87801516 Ry
     estimated scf accuracy    <       0.02075667 Ry

     iteration #  6     ecut=   100.00 Ry     beta= 0.70
     Davidson diagonalization with overlap
     c_bands:  2 eigenvalues not converged
     ethr =  3.71E-06,  avg # of iterations = 20.0

     total cpu time spent up to now is       42.6 secs

     total energy              =   -1650.87616448 Ry
     estimated scf accuracy    <       0.01438605 Ry

     iteration #  7     ecut=   100.00 Ry     beta= 0.70
     Davidson diagonalization with overlap
     ethr =  2.57E-06,  avg # of iterations =  3.0

     total cpu time spent up to now is       47.8 secs

     total energy              =   -1650.87645464 Ry
     estimated scf accuracy    <       0.00558691 Ry

     iteration #  8     ecut=   100.00 Ry     beta= 0.70
     Davidson diagonalization with overlap
     ethr =  9.98E-07,  avg # of iterations =  4.0

     total cpu time spent up to now is       51.7 secs

     total energy              =   -1650.87581230 Ry
     estimated scf accuracy    <       0.00288395 Ry

     iteration #  9     ecut=   100.00 Ry     beta= 0.70
     Davidson diagonalization with overlap
     ethr =  5.15E-07,  avg # of iterations =  5.0

     total cpu time spent up to now is       56.8 secs

     total energy              =   -1650.87603296 Ry
     estimated scf accuracy    <       0.00100945 Ry

     iteration # 10     ecut=   100.00 Ry     beta= 0.70
     Davidson diagonalization with overlap
     ethr =  1.80E-07,  avg # of iterations =  5.0

     total cpu time spent up to now is       61.1 secs

     End of self-consistent calculation

          k = 0.0000 0.0000 0.0000 (102219 PWs)   bands (ev):

   -21.7877 -21.7811 -21.7582 -21.7518 -21.5330 -21.5310 -21.5294 -21.5282
   -18.6820 -18.6799 -18.6781 -18.6774 -17.7597 -17.7589 -17.7579 -17.7568
   -16.7576 -16.7565 -16.7394 -16.7380 -16.7341 -16.7294 -16.7281 -16.7234
   -16.3105 -16.3047 -16.3027 -16.2968 -14.2344 -14.2301 -14.2278 -14.2233
   -13.6600 -13.6540 -13.6460 -13.6396 -13.0663 -13.0603 -13.0550 -13.0532
   -13.0143 -13.0124 -13.0018 -12.9983 -12.9264 -12.9107 -12.9047 -12.8916
   -12.5528 -12.5310 -12.5298 -12.5043 -12.3989 -12.3810 -12.3749 -12.3537
   -11.0357 -11.0152 -11.0091 -10.9771 -10.9298 -10.9043 -10.8937 -10.8728
   -10.8349 -10.8316 -10.8270 -10.8152 -10.0683 -10.0643 -10.0547 -10.0512
    -9.2232  -9.2053  -9.2008  -9.1841  -8.7161  -8.7103  -8.7022  -8.7015
    -8.6182  -8.6138  -8.6074  -8.5937  -8.5070  -8.4911  -8.4621  -8.4602
    -8.0136  -8.0053  -7.9910  -7.9880  -7.9004  -7.8857  -7.8345  -7.7936
    -7.5989  -7.5934  -7.5287  -7.5176  -7.3758  -7.3649  -7.2794  -7.2594
    -6.8976  -6.8895  -6.7927  -6.7845  -6.5332  -6.5263  -6.5258  -6.5227
    -6.3781  -6.3739  -6.3595  -6.3555  -6.1410  -6.1304  -6.1246  -6.1093
    -5.9867  -5.9529  -5.9520  -5.9135  -5.6432  -5.6137  -5.5959  -5.5386
    -5.5352  -5.5153  -5.5075  -5.4687  -5.4611  -5.3920  -5.3592  -5.3520
    -5.3249  -5.2748  -5.2739  -5.2686  -5.1740  -5.1523  -5.1508  -5.1415
    -4.5580  -4.5407  -4.5384  -4.5011  -4.4918  -4.4663  -4.4326  -4.4189
    -4.2608  -4.2575  -4.2515  -4.2460  -4.2382  -4.2102  -4.1629  -4.1277
    -4.0613  -4.0081  -3.9718  -3.9300  -3.9221  -3.9044  -3.8921  -3.8775
    -3.8616  -3.8581  -3.8423  -3.8322  -3.6715  -3.6559  -3.6257  -3.5983
    -3.3323  -3.2860  -3.2457  -3.2360  -3.2328  -3.1702  -3.1573  -3.1466
    -3.1266  -3.1123  -2.8834  -2.8763  -2.8562  -2.8558  -2.8387  -2.8075
    -2.7896  -2.7681  -2.7499  -2.7035  -2.6826  -2.6780  -2.6722  -2.6521
    -2.5630  -2.5537  -2.5233  -2.5154  -2.2214  -2.1932  -2.0410  -2.0087
    -1.9932  -1.9877  -1.9707  -1.9547  -1.8243  -1.8151  -1.7961  -1.7710
    -1.6782  -1.6716  -1.6417  -1.6360  -1.6323  -1.6072  -1.5551  -1.5324
    -1.4863  -1.4707  -1.2333  -1.2078  -1.1943  -1.1436  -1.1382  -1.1077
    -0.9765  -0.9269  -0.9119  -0.8992  -0.8854  -0.8716  -0.8448  -0.8221
    -0.7096  -0.6440  -0.5129  -0.4915  -0.4900  -0.4862  -0.4427  -0.4231
    -0.3483  -0.3343  -0.2939  -0.2720  -0.2088  -0.1605  -0.0967  -0.0865
     0.2228   0.2460   0.2563   0.2616   0.3627   0.4227   0.4289   0.4623
     0.5930   0.6629   0.6783   0.6928   0.7002   0.7216   0.8084   0.8384
     0.9129   0.9706   1.0150   1.0167   1.0703   1.0787   1.1037   1.1151
     3.4023   3.4191   3.4550   3.4645   4.1935   4.1971

     highest occupied, lowest unoccupied level (ev):     1.1151    3.4023

!    total energy              =   -1650.87595428 Ry
     estimated scf accuracy    <       0.00024223 Ry

     convergence has been achieved in  10 iterations

     Using ACE for calculation of exact exchange

     EXX grid:   289181 G-vectors     FFT dimensions: ( 144,  48, 216)
     ACE projected onto   286 (nbndproj) and applied to   286 (nbnd) bands

     EXX: now go back to refine exchange calculation

     total cpu time spent up to now is      127.6 secs

     per-process dynamical memory:   114.5 Mb

     Self-consistent Calculation

     iteration #  1     ecut=   100.00 Ry     beta= 0.70
     Davidson diagonalization with overlap
     ethr =  1.80E-07,  avg # of iterations =  8.0

     total cpu time spent up to now is      139.4 secs

     total energy              =   -1650.51655039 Ry
     estimated scf accuracy    <       0.03026157 Ry

     iteration #  2     ecut=   100.00 Ry     beta= 0.70
     Davidson diagonalization with overlap
     ethr =  5.40E-06,  avg # of iterations =  2.0

     total cpu time spent up to now is      142.3 secs

     total energy              =   -1650.51595163 Ry
     estimated scf accuracy    <       0.00569262 Ry

     iteration #  3     ecut=   100.00 Ry     beta= 0.70
     Davidson diagonalization with overlap
     ethr =  1.02E-06,  avg # of iterations =  2.0

     total cpu time spent up to now is      146.0 secs

     End of self-consistent calculation

          k = 0.0000 0.0000 0.0000 (102219 PWs)   bands (ev):

   -25.2338 -25.2226 -25.2019 -25.1906 -24.9420 -24.9401 -24.9390 -24.9361
   -21.9748 -21.9733 -21.9710 -21.9681 -20.8277 -20.8251 -20.8240 -20.8215
   -19.7739 -19.7706 -19.7646 -19.7621 -19.7547 -19.7515 -19.7353 -19.7349
   -19.2445 -19.2373 -19.2357 -19.2289 -17.0895 -17.0827 -17.0823 -17.0760
   -16.3869 -16.3799 -16.3714 -16.3639 -15.7476 -15.7424 -15.7356 -15.7335
   -15.6956 -15.6911 -15.6844 -15.6816 -15.6259 -15.6094 -15.6013 -15.5875
   -15.2131 -15.1944 -15.1871 -15.1636 -15.0564 -15.0419 -15.0338 -15.0150
   -13.5016 -13.4807 -13.4713 -13.4421 -13.3728 -13.3476 -13.3354 -13.3114
   -13.2605 -13.2537 -13.2497 -13.2337 -12.4236 -12.4190 -12.4094 -12.4054
   -11.4867 -11.4679 -11.4601 -11.4428 -10.9705 -10.9683 -10.9584 -10.9551
   -10.8380 -10.8284 -10.8258 -10.8128 -10.6862 -10.6754 -10.6448 -10.6410
   -10.1506 -10.1458 -10.1347 -10.1317  -9.9803  -9.9564  -9.9173  -9.8709
    -9.6348  -9.6294  -9.5737  -9.5549  -9.3445  -9.3195  -9.2379  -9.2100
    -8.8889  -8.8786  -8.7666  -8.7582  -8.5240  -8.5162  -8.5113  -8.5088
    -8.3335  -8.3236  -8.3180  -8.3098  -8.0319  -8.0218  -8.0156  -7.9984
    -7.8831  -7.8463  -7.8356  -7.7898  -7.5905  -7.5556  -7.5343  -7.4791
    -7.4694  -7.4463  -7.4247  -7.3770  -7.3679  -7.3100  -7.2325  -7.2037
    -7.1895  -7.1787  -7.1007  -7.0938  -6.9926  -6.9690  -6.9622  -6.9532
    -6.3241  -6.3119  -6.2917  -6.2756  -6.2436  -6.1854  -6.1813  -6.1741
    -6.0774  -6.0508  -5.9373  -5.9306  -5.9190  -5.9014  -5.8274  -5.8086
    -5.7885  -5.7711  -5.7499  -5.6925  -5.6909  -5.6588  -5.6036  -5.5882
    -5.5838  -5.5559  -5.4981  -5.4655  -5.4212  -5.3996  -5.3197  -5.2857
    -4.9530  -4.9052  -4.8782  -4.8740  -4.8599  -4.7979  -4.7691  -4.7528
    -4.7067  -4.6781  -4.4884  -4.4825  -4.4620  -4.4558  -4.4334  -4.4140
    -4.3754  -4.3677  -4.3118  -4.2649  -4.2425  -4.2104  -4.1918  -4.1845
    -4.0775  -4.0665  -4.0444  -4.0388  -3.8108  -3.7668  -3.5869  -3.5820
    -3.5348  -3.5087  -3.4887  -3.4861  -3.2845  -3.2559  -3.2554  -3.2457
    -3.1774  -3.1722  -3.1619  -3.1564  -3.1166  -3.0940  -3.0206  -3.0028
    -2.9902  -2.9841  -2.6955  -2.6816  -2.5918  -2.5430  -2.5254  -2.4932
    -2.4067  -2.3810  -2.3120  -2.2895  -2.2274  -2.2051  -2.1836  -2.1287
    -1.9862  -1.8804  -1.8754  -1.8567  -1.8163  -1.7474  -1.7266  -1.7023
    -1.6156  -1.5917  -1.5800  -1.4847  -1.4832  -1.4199  -1.4034  -1.3767
    -0.9435  -0.9263  -0.9062  -0.8948  -0.8920  -0.8394  -0.7704  -0.7351
    -0.6679  -0.6125  -0.5906  -0.5753  -0.5339  -0.4394  -0.4201  -0.4040
    -0.3837  -0.3781  -0.2703  -0.2595  -0.0550  -0.0204   0.0065   0.0073
     4.0372   4.0541   4.0924   4.1015   4.9884   4.9903

     highest occupied, lowest unoccupied level (ev):     0.0073    4.0372

!    total energy              =   -1650.51593119 Ry
     estimated scf accuracy    <       0.00096230 Ry

     convergence has been achieved in   3 iterations

     Using ACE for calculation of exact exchange
     ACE projected onto   286 (nbndproj) and applied to   286 (nbnd) bands

     total energy              =   -1650.52938662 Ry
     Harris-Foulkes estimate   =   -1650.53023167 Ry
     est. exchange err (dexx)  =       0.01345543 Ry
     - averaged Fock potential =     230.98223665 Ry
     + Fock energy (ACE)       =    -115.56728938 Ry

     scf convergence threshold =          1.3E-03 Ry

     EXX: now go back to refine exchange calculation

     total cpu time spent up to now is      215.3 secs

     per-process dynamical memory:   120.9 Mb

     Self-consistent Calculation

     iteration #  1     ecut=   100.00 Ry     beta= 0.70
     Davidson diagonalization with overlap
     ethr =  1.02E-06,  avg # of iterations =  5.0

     total cpu time spent up to now is      224.0 secs

     total energy              =   -1650.53219727 Ry
     estimated scf accuracy    <       0.00209832 Ry

     iteration #  2     ecut=   100.00 Ry     beta= 0.70
     Davidson diagonalization with overlap
     ethr =  3.75E-07,  avg # of iterations =  2.0

     total cpu time spent up to now is      227.4 secs

     End of self-consistent calculation

          k = 0.0000 0.0000 0.0000 (102219 PWs)   bands (ev):

   -25.1006 -25.0877 -25.0689 -25.0560 -24.8444 -24.8403 -24.8394 -24.8357
   -21.9719 -21.9687 -21.9664 -21.9644 -20.8963 -20.8940 -20.8872 -20.8850
   -19.7796 -19.7781 -19.7708 -19.7680 -19.7609 -19.7570 -19.7541 -19.7520
   -19.3096 -19.3015 -19.3009 -19.2926 -17.1006 -17.0945 -17.0943 -17.0878
   -16.4225 -16.4152 -16.4072 -16.3995 -15.7184 -15.7123 -15.7084 -15.7073
   -15.6673 -15.6666 -15.6540 -15.6498 -15.6462 -15.6317 -15.6283 -15.6135
   -15.2815 -15.2661 -15.2493 -15.2286 -15.0945 -15.0835 -15.0800 -15.0643
   -13.4507 -13.4268 -13.4232 -13.3947 -13.3340 -13.3318 -13.2919 -13.2850
   -13.2725 -13.2540 -13.2371 -13.2187 -12.4386 -12.4335 -12.4249 -12.4204
   -11.5061 -11.4880 -11.4815 -11.4648 -10.9526 -10.9507 -10.9403 -10.9370
   -10.8313 -10.8277 -10.8206 -10.8067 -10.7192 -10.7021 -10.6721 -10.6700
   -10.1992 -10.1919 -10.1853 -10.1746  -9.9600  -9.9380  -9.9037  -9.8641
    -9.6090  -9.6034  -9.5321  -9.5194  -9.3496  -9.3327  -9.2421  -9.2177
    -8.8894  -8.8769  -8.7744  -8.7660  -8.5199  -8.5109  -8.5040  -8.5009
    -8.3276  -8.3150  -8.3121  -8.3011  -8.0515  -8.0403  -8.0390  -8.0214
    -7.8848  -7.8497  -7.8404  -7.7944  -7.5064  -7.4836  -7.4624  -7.4167
    -7.4130  -7.4002  -7.3772  -7.3574  -7.3130  -7.2541  -7.2160  -7.2140
    -7.1853  -7.1374  -7.1292  -7.1199  -6.9823  -6.9621  -6.9573  -6.9390
    -6.3490  -6.3440  -6.3179  -6.3004  -6.2715  -6.2200  -6.2191  -6.2137
    -6.0241  -6.0085  -5.9216  -5.9184  -5.9017  -5.8918  -5.8171  -5.7802
    -5.7672  -5.7601  -5.7358  -5.6519  -5.6505  -5.6117  -5.6081  -5.5943
    -5.5764  -5.5344  -5.5276  -5.4846  -5.3672  -5.3442  -5.3347  -5.2996
    -5.0050  -4.9560  -4.9296  -4.9084  -4.9068  -4.8357  -4.7882  -4.7781
    -4.7538  -4.7283  -4.4980  -4.4976  -4.4817  -4.4652  -4.4478  -4.4469
    -4.3788  -4.3763  -4.3741  -4.3142  -4.2998  -4.2630  -4.2463  -4.2265
    -4.1131  -4.0939  -4.0901  -4.0727  -3.7464  -3.7157  -3.5637  -3.5536
    -3.5235  -3.5003  -3.4788  -3.4655  -3.2745  -3.2532  -3.2255  -3.2216
    -3.1524  -3.1369  -3.1347  -3.1194  -3.0852  -3.0476  -2.9704  -2.9571
    -2.9385  -2.9310  -2.6539  -2.6427  -2.5608  -2.5209  -2.4946  -2.4581
    -2.3912  -2.3783  -2.3064  -2.2997  -2.2275  -2.2174  -2.2111  -2.1480
    -2.0039  -1.9023  -1.8770  -1.8746  -1.8257  -1.7784  -1.7722  -1.7287
    -1.6688  -1.6464  -1.6193  -1.5386  -1.5297  -1.4694  -1.4648  -1.4354
    -0.9373  -0.9320  -0.9181  -0.8941  -0.8847  -0.8526  -0.7823  -0.7465
    -0.6742  -0.6392  -0.5943  -0.5840  -0.5485  -0.4452  -0.4044  -0.4019
    -0.3827  -0.3636  -0.2773  -0.2599  -0.1139  -0.0868  -0.0465  -0.0313
     4.0509   4.0673   4.1022   4.1118   4.9801   4.9829

     highest occupied, lowest unoccupied level (ev):    -0.0313    4.0509

!    total energy              =   -1650.53124018 Ry
     estimated scf accuracy    <       0.00110157 Ry

     convergence has been achieved in   2 iterations

     Using ACE for calculation of exact exchange
     ACE projected onto   286 (nbndproj) and applied to   286 (nbnd) bands

     total energy              =   -1650.53194629 Ry
     Harris-Foulkes estimate   =   -1650.53298055 Ry
     est. exchange err (dexx)  =       0.00070611 Ry
     - averaged Fock potential =     231.16646644 Ry
     + Fock energy (ACE)       =    -115.59988318 Ry

     scf convergence threshold =          7.1E-05 Ry

     EXX: now go back to refine exchange calculation

     total cpu time spent up to now is      299.4 secs

     per-process dynamical memory:   120.6 Mb

     Self-consistent Calculation

     iteration #  1     ecut=   100.00 Ry     beta= 0.70
     Davidson diagonalization with overlap
     ethr =  3.75E-07,  avg # of iterations =  5.0

     total cpu time spent up to now is      305.6 secs

     total energy              =   -1650.53306314 Ry
     estimated scf accuracy    <       0.00327166 Ry

     iteration #  2     ecut=   100.00 Ry     beta= 0.70
     Davidson diagonalization with overlap
     ethr =  5.84E-07,  avg # of iterations =  2.0

     total cpu time spent up to now is      308.9 secs

     total energy              =   -1650.53254801 Ry
     estimated scf accuracy    <       0.00187656 Ry

     iteration #  3     ecut=   100.00 Ry     beta= 0.70
     Davidson diagonalization with overlap
     ethr =  3.35E-07,  avg # of iterations =  3.0

     total cpu time spent up to now is      312.9 secs

     total energy              =   -1650.53261739 Ry
     estimated scf accuracy    <       0.00047216 Ry

     iteration #  4     ecut=   100.00 Ry     beta= 0.70
     Davidson diagonalization with overlap
     ethr =  8.43E-08,  avg # of iterations =  2.0

     total cpu time spent up to now is      316.1 secs

     total energy              =   -1650.53257676 Ry
     estimated scf accuracy    <       0.00019483 Ry

     iteration #  5     ecut=   100.00 Ry     beta= 0.70
     Davidson diagonalization with overlap
     ethr =  3.48E-08,  avg # of iterations =  4.0

     total cpu time spent up to now is      320.0 secs

     End of self-consistent calculation

          k = 0.0000 0.0000 0.0000 (102219 PWs)   bands (ev):

   -25.1710 -25.1605 -25.1392 -25.1287 -24.9003 -24.8977 -24.8970 -24.8947
   -21.9556 -21.9542 -21.9526 -21.9513 -20.8469 -20.8448 -20.8409 -20.8389
   -19.7800 -19.7785 -19.7720 -19.7692 -19.7649 -19.7606 -19.7547 -19.7525
   -19.2613 -19.2547 -19.2529 -19.2464 -17.0928 -17.0880 -17.0867 -17.0820
   -16.4072 -16.4003 -16.3920 -16.3845 -15.7387 -15.7286 -15.7254 -15.7206
   -15.6931 -15.6929 -15.6803 -15.6742 -15.6392 -15.6221 -15.6168 -15.6027
   -15.2313 -15.2136 -15.2036 -15.1808 -15.0681 -15.0544 -15.0477 -15.0295
   -13.4829 -13.4594 -13.4551 -13.4236 -13.3591 -13.3435 -13.3162 -13.3016
   -13.2682 -13.2553 -13.2542 -13.2328 -12.4325 -12.4279 -12.4186 -12.4147
   -11.4983 -11.4798 -11.4727 -11.4555 -10.9650 -10.9627 -10.9533 -10.9503
   -10.8478 -10.8394 -10.8357 -10.8215 -10.6954 -10.6840 -10.6527 -10.6498
   -10.1601 -10.1576 -10.1474 -10.1419  -9.9767  -9.9549  -9.9159  -9.8728
    -9.6204  -9.6155  -9.5556  -9.5388  -9.3437  -9.3198  -9.2377  -9.2101
    -8.8833  -8.8728  -8.7637  -8.7558  -8.5252  -8.5157  -8.5123  -8.5085
    -8.3386  -8.3272  -8.3230  -8.3132  -8.0414  -8.0305  -8.0279  -8.0102
    -7.8841  -7.8484  -7.8362  -7.7912  -7.5535  -7.5128  -7.5120  -7.4484
    -7.4391  -7.4206  -7.4074  -7.3603  -7.3538  -7.2822  -7.2121  -7.2110
    -7.1970  -7.1595  -7.1117  -7.1033  -6.9982  -6.9767  -6.9700  -6.9578
    -6.3299  -6.3213  -6.2961  -6.2794  -6.2516  -6.1943  -6.1888  -6.1823
    -6.0553  -6.0310  -5.9287  -5.9236  -5.9105  -5.8948  -5.8263  -5.7974
    -5.7757  -5.7689  -5.7475  -5.6800  -5.6761  -5.6391  -5.5992  -5.5862
    -5.5834  -5.5540  -5.4971  -5.4650  -5.3995  -5.3789  -5.3172  -5.2852
    -4.9668  -4.9179  -4.8947  -4.8832  -4.8754  -4.8084  -4.7681  -4.7537
    -4.7208  -4.6904  -4.4991  -4.4920  -4.4738  -4.4660  -4.4442  -4.4286
    -4.3858  -4.3788  -4.3297  -4.2822  -4.2571  -4.2263  -4.2064  -4.1970
    -4.0884  -4.0776  -4.0590  -4.0506  -3.7883  -3.7517  -3.5856  -3.5767
    -3.5378  -3.5154  -3.4954  -3.4874  -3.2898  -3.2633  -3.2408  -3.2360
    -3.1745  -3.1659  -3.1544  -3.1463  -3.1151  -3.0834  -3.0024  -2.9875
    -2.9765  -2.9727  -2.6863  -2.6745  -2.5797  -2.5365  -2.5125  -2.4786
    -2.4032  -2.3835  -2.3124  -2.2994  -2.2347  -2.2098  -2.1988  -2.1349
    -1.9947  -1.8920  -1.8903  -1.8714  -1.8293  -1.7676  -1.7416  -1.7203
    -1.6346  -1.6008  -1.5935  -1.5051  -1.4995  -1.4406  -1.4139  -1.3903
    -0.9399  -0.9211  -0.9152  -0.8922  -0.8899  -0.8465  -0.7765  -0.7399
    -0.6727  -0.6247  -0.5938  -0.5842  -0.5465  -0.4510  -0.4135  -0.4070
    -0.3878  -0.3726  -0.2834  -0.2708  -0.0824  -0.0509  -0.0208  -0.0170
     4.0749   4.0909   4.1261   4.1352   4.9970   4.9997

     highest occupied, lowest unoccupied level (ev):    -0.0170    4.0749

!    total energy              =   -1650.53254963 Ry
     estimated scf accuracy    <       0.00006688 Ry

     convergence has been achieved in   5 iterations

     Using ACE for calculation of exact exchange
     ACE projected onto   286 (nbndproj) and applied to   286 (nbnd) bands

     total energy              =   -1650.53264067 Ry
     Harris-Foulkes estimate   =   -1650.53270162 Ry
     est. exchange err (dexx)  =       0.00009104 Ry
     - averaged Fock potential =     231.20816586 Ry
     + Fock energy (ACE)       =    -115.60837372 Ry

     scf convergence threshold =          9.1E-06 Ry

     EXX: now go back to refine exchange calculation

     total cpu time spent up to now is      389.9 secs

     per-process dynamical memory:   125.9 Mb

     Self-consistent Calculation

     iteration #  1     ecut=   100.00 Ry     beta= 0.70
     Davidson diagonalization with overlap
     ethr =  3.48E-08,  avg # of iterations =  5.0

     total cpu time spent up to now is      395.5 secs

     total energy              =   -1650.53269960 Ry
     estimated scf accuracy    <       0.00012911 Ry

     iteration #  2     ecut=   100.00 Ry     beta= 0.70
     Davidson diagonalization with overlap
     ethr =  2.31E-08,  avg # of iterations =  2.0

     total cpu time spent up to now is      399.9 secs

     total energy              =   -1650.53267710 Ry
     estimated scf accuracy    <       0.00007286 Ry

     iteration #  3     ecut=   100.00 Ry     beta= 0.70
     Davidson diagonalization with overlap
     ethr =  1.30E-08,  avg # of iterations =  3.0

     total cpu time spent up to now is      406.1 secs

     total energy              =   -1650.53268171 Ry
     estimated scf accuracy    <       0.00001740 Ry

     iteration #  4     ecut=   100.00 Ry     beta= 0.70
     Davidson diagonalization with overlap
     ethr =  3.11E-09,  avg # of iterations =  2.0

     total cpu time spent up to now is      409.9 secs

     End of self-consistent calculation

          k = 0.0000 0.0000 0.0000 (102219 PWs)   bands (ev):

   -25.1521 -25.1454 -25.1203 -25.1136 -24.8814 -24.8795 -24.8791 -24.8772
   -21.9728 -21.9714 -21.9707 -21.9693 -20.8595 -20.8574 -20.8549 -20.8528
   -19.7770 -19.7753 -19.7674 -19.7651 -19.7623 -19.7579 -19.7521 -19.7502
   -19.2773 -19.2715 -19.2690 -19.2632 -17.0942 -17.0912 -17.0885 -17.0856
   -16.4109 -16.4037 -16.3962 -16.3886 -15.7313 -15.7219 -15.7193 -15.7165
   -15.6835 -15.6833 -15.6707 -15.6653 -15.6455 -15.6263 -15.6232 -15.6076
   -15.2493 -15.2332 -15.2199 -15.1982 -15.0780 -15.0654 -15.0602 -15.0430
   -13.4699 -13.4470 -13.4420 -13.4117 -13.3488 -13.3387 -13.3023 -13.2960
   -13.2739 -13.2561 -13.2523 -13.2295 -12.4360 -12.4314 -12.4222 -12.4182
   -11.5020 -11.4837 -11.4764 -11.4596 -10.9581 -10.9559 -10.9487 -10.9451
   -10.8400 -10.8334 -10.8290 -10.8147 -10.7050 -10.6919 -10.6604 -10.6585
   -10.1746 -10.1715 -10.1614 -10.1546  -9.9696  -9.9472  -9.9101  -9.8681
    -9.6155  -9.6108  -9.5472  -9.5323  -9.3457  -9.3245  -9.2387  -9.2122
    -8.8890  -8.8781  -8.7711  -8.7633  -8.5218  -8.5121  -8.5078  -8.5045
    -8.3330  -8.3204  -8.3180  -8.3072  -8.0440  -8.0333  -8.0307  -8.0132
    -7.8857  -7.8502  -7.8389  -7.7933  -7.5386  -7.5021  -7.4976  -7.4389
    -7.4291  -7.4107  -7.4035  -7.3588  -7.3439  -7.2698  -7.2157  -7.2036
    -7.2023  -7.1502  -7.1194  -7.1086  -6.9911  -6.9697  -6.9634  -6.9495
    -6.3367  -6.3278  -6.3043  -6.2843  -6.2586  -6.2009  -6.1972  -6.1920
    -6.0479  -6.0270  -5.9232  -5.9201  -5.9054  -5.8923  -5.8225  -5.7934
    -5.7769  -5.7655  -5.7437  -5.6697  -5.6688  -5.6325  -5.6041  -5.5911
    -5.5805  -5.5468  -5.5105  -5.4744  -5.3928  -5.3717  -5.3267  -5.2923
    -4.9806  -4.9323  -4.9058  -4.8949  -4.8857  -4.8217  -4.7769  -4.7645
    -4.7350  -4.7067  -4.4975  -4.4920  -4.4763  -4.4638  -4.4471  -4.4347
    -4.3827  -4.3778  -4.3468  -4.2944  -4.2732  -4.2442  -4.2221  -4.2094
    -4.0955  -4.0834  -4.0717  -4.0595  -3.7734  -3.7388  -3.5747  -3.5658
    -3.5297  -3.5080  -3.4864  -3.4773  -3.2828  -3.2569  -3.2350  -3.2320
    -3.1648  -3.1564  -3.1471  -3.1377  -3.1029  -3.0701  -2.9918  -2.9773
    -2.9625  -2.9597  -2.6730  -2.6613  -2.5712  -2.5312  -2.5041  -2.4693
    -2.3994  -2.3844  -2.3105  -2.3028  -2.2335  -2.2106  -2.2060  -2.1395
    -1.9983  -1.8942  -1.8864  -1.8745  -1.8286  -1.7715  -1.7518  -1.7228
    -1.6479  -1.6175  -1.6034  -1.5189  -1.5107  -1.4522  -1.4332  -1.4084
    -0.9430  -0.9258  -0.9246  -0.8963  -0.8927  -0.8542  -0.7843  -0.7486
    -0.6789  -0.6357  -0.5938  -0.5922  -0.5528  -0.4513  -0.4107  -0.4067
    -0.3870  -0.3708  -0.2821  -0.2679  -0.0952  -0.0653  -0.0322  -0.0243
     4.0669   4.0826   4.1177   4.1266   4.9936   4.9966

     highest occupied, lowest unoccupied level (ev):    -0.0243    4.0669

!    total energy              =   -1650.53267536 Ry
     estimated scf accuracy    <       0.00000780 Ry

     convergence has been achieved in   4 iterations

     Using ACE for calculation of exact exchange
     ACE projected onto   286 (nbndproj) and applied to   286 (nbnd) bands

     total energy              =   -1650.53268418 Ry
     Harris-Foulkes estimate   =   -1650.53269151 Ry
     est. exchange err (dexx)  =       0.00000882 Ry
     - averaged Fock potential =     231.21954508 Ry
     + Fock energy (ACE)       =    -115.61118019 Ry

     scf convergence threshold =          8.8E-07 Ry

     EXX: now go back to refine exchange calculation

     total cpu time spent up to now is      477.2 secs

     per-process dynamical memory:   125.9 Mb

     Self-consistent Calculation

     iteration #  1     ecut=   100.00 Ry     beta= 0.70
     Davidson diagonalization with overlap
     ethr =  3.11E-09,  avg # of iterations =  5.0

     total cpu time spent up to now is      483.0 secs

     total energy              =   -1650.53269119 Ry
     estimated scf accuracy    <       0.00001486 Ry

     iteration #  2     ecut=   100.00 Ry     beta= 0.70
     Davidson diagonalization with overlap
     ethr =  2.65E-09,  avg # of iterations =  1.0

     total cpu time spent up to now is      485.7 secs

     total energy              =   -1650.53268886 Ry
     estimated scf accuracy    <       0.00000935 Ry

     iteration #  3     ecut=   100.00 Ry     beta= 0.70
     Davidson diagonalization with overlap
     ethr =  1.67E-09,  avg # of iterations =  2.0

     total cpu time spent up to now is      489.3 secs

     total energy              =   -1650.53268886 Ry
     estimated scf accuracy    <       0.00000317 Ry

     iteration #  4     ecut=   100.00 Ry     beta= 0.70
     Davidson diagonalization with overlap
     ethr =  5.66E-10,  avg # of iterations =  2.0

     total cpu time spent up to now is      493.0 secs

     total energy              =   -1650.53268846 Ry
     estimated scf accuracy    <       0.00000156 Ry

     iteration #  5     ecut=   100.00 Ry     beta= 0.70
     Davidson diagonalization with overlap
     ethr =  2.78E-10,  avg # of iterations =  4.0

     total cpu time spent up to now is      497.2 secs

     End of self-consistent calculation

          k = 0.0000 0.0000 0.0000 (102219 PWs)   bands (ev):

   -25.1538 -25.1502 -25.1221 -25.1185 -24.8823 -24.8810 -24.8809 -24.8796
   -21.9666 -21.9658 -21.9650 -21.9642 -20.8550 -20.8529 -20.8526 -20.8505
   -19.7775 -19.7760 -19.7693 -19.7670 -19.7653 -19.7607 -19.7522 -19.7508
   -19.2724 -19.2677 -19.2641 -19.2594 -17.0935 -17.0917 -17.0879 -17.0862
   -16.4093 -16.4022 -16.3947 -16.3872 -15.7327 -15.7231 -15.7206 -15.7181
   -15.6853 -15.6849 -15.6728 -15.6680 -15.6443 -15.6256 -15.6216 -15.6065
   -15.2447 -15.2284 -15.2158 -15.1940 -15.0757 -15.0629 -15.0573 -15.0399
   -13.4725 -13.4502 -13.4444 -13.4144 -13.3505 -13.3391 -13.3049 -13.2966
   -13.2721 -13.2551 -13.2525 -13.2295 -12.4350 -12.4303 -12.4212 -12.4172
   -11.5009 -11.4826 -11.4753 -11.4584 -10.9604 -10.9581 -10.9521 -10.9482
   -10.8410 -10.8338 -10.8302 -10.8159 -10.7027 -10.6900 -10.6585 -10.6565
   -10.1705 -10.1685 -10.1577 -10.1516  -9.9703  -9.9479  -9.9105  -9.8682
    -9.6164  -9.6118  -9.5489  -9.5335  -9.3443  -9.3226  -9.2375  -9.2107
    -8.8873  -8.8764  -8.7691  -8.7612  -8.5227  -8.5133  -8.5090  -8.5060
    -8.3342  -8.3218  -8.3194  -8.3089  -8.0426  -8.0321  -8.0293  -8.0121
    -7.8854  -7.8497  -7.8384  -7.7928  -7.5409  -7.5031  -7.5003  -7.4407
    -7.4300  -7.4132  -7.4039  -7.3592  -7.3461  -7.2714  -7.2153  -7.2048
    -7.2014  -7.1522  -7.1182  -7.1082  -6.9920  -6.9707  -6.9644  -6.9508
    -6.3350  -6.3268  -6.3019  -6.2833  -6.2573  -6.1997  -6.1945  -6.1896
    -6.0495  -6.0278  -5.9252  -5.9215  -5.9078  -5.8936  -5.8224  -5.7929
    -5.7752  -5.7651  -5.7437  -5.6707  -5.6697  -5.6333  -5.6029  -5.5898
    -5.5801  -5.5474  -5.5068  -5.4718  -5.3938  -5.3731  -5.3237  -5.2899
    -4.9775  -4.9289  -4.9035  -4.8915  -4.8839  -4.8181  -4.7744  -4.7616
    -4.7314  -4.7026  -4.4978  -4.4927  -4.4766  -4.4646  -4.4470  -4.4338
    -4.3833  -4.3784  -4.3429  -4.2919  -4.2695  -4.2392  -4.2187  -4.2060
    -4.0932  -4.0819  -4.0682  -4.0573  -3.7764  -3.7418  -3.5770  -3.5691
    -3.5325  -3.5100  -3.4885  -3.4798  -3.2852  -3.2595  -3.2358  -3.2331
    -3.1669  -3.1589  -3.1487  -3.1394  -3.1047  -3.0721  -2.9930  -2.9786
    -2.9643  -2.9623  -2.6749  -2.6633  -2.5734  -2.5325  -2.5067  -2.4722
    -2.4009  -2.3843  -2.3113  -2.3023  -2.2340  -2.2098  -2.2043  -2.1379
    -1.9969  -1.8928  -1.8869  -1.8743  -1.8284  -1.7708  -1.7499  -1.7235
    -1.6449  -1.6134  -1.6015  -1.5158  -1.5086  -1.4501  -1.4283  -1.4042
    -0.9425  -0.9241  -0.9229  -0.8951  -0.8926  -0.8526  -0.7825  -0.7464
    -0.6770  -0.6328  -0.5918  -0.5912  -0.5517  -0.4510  -0.4124  -0.4077
    -0.3879  -0.3726  -0.2820  -0.2683  -0.0926  -0.0623  -0.0299  -0.0227
     4.0699   4.0856   4.1207   4.1296   4.9953   4.9982

     highest occupied, lowest unoccupied level (ev):    -0.0227    4.0699

!    total energy              =   -1650.53268810 Ry
     estimated scf accuracy    <       0.00000062 Ry

     convergence has been achieved in   5 iterations

     Using ACE for calculation of exact exchange
     ACE projected onto   286 (nbndproj) and applied to   286 (nbnd) bands

     total energy              =   -1650.53268894 Ry
     Harris-Foulkes estimate   =   -1650.53268952 Ry
     est. exchange err (dexx)  =       0.00000084 Ry
     - averaged Fock potential =     231.22280460 Ry
     + Fock energy (ACE)       =    -115.61162525 Ry

     scf convergence threshold =          1.0E-07 Ry

     EXX: now go back to refine exchange calculation

     total cpu time spent up to now is      570.7 secs

     per-process dynamical memory:   125.9 Mb

     Self-consistent Calculation

     iteration #  1     ecut=   100.00 Ry     beta= 0.70
     Davidson diagonalization with overlap
     ethr =  2.78E-10,  avg # of iterations =  5.0

     total cpu time spent up to now is      576.0 secs

     total energy              =   -1650.53268957 Ry
     estimated scf accuracy    <       0.00000113 Ry

     iteration #  2     ecut=   100.00 Ry     beta= 0.70
     Davidson diagonalization with overlap
     ethr =  2.02E-10,  avg # of iterations =  1.0

     total cpu time spent up to now is      580.2 secs

     total energy              =   -1650.53268940 Ry
     estimated scf accuracy    <       0.00000072 Ry

     iteration #  3     ecut=   100.00 Ry     beta= 0.70
     Davidson diagonalization with overlap
     ethr =  1.28E-10,  avg # of iterations =  2.0

     total cpu time spent up to now is      585.8 secs

     total energy              =   -1650.53268940 Ry
     estimated scf accuracy    <       0.00000027 Ry

     iteration #  4     ecut=   100.00 Ry     beta= 0.70
     Davidson diagonalization with overlap
     ethr =  4.87E-11,  avg # of iterations =  2.0

     total cpu time spent up to now is      589.1 secs

     total energy              =   -1650.53268937 Ry
     estimated scf accuracy    <       0.00000016 Ry

     iteration #  5     ecut=   100.00 Ry     beta= 0.70
     Davidson diagonalization with overlap
     ethr =  2.86E-11,  avg # of iterations =  2.0

     total cpu time spent up to now is      593.2 secs

     End of self-consistent calculation

          k = 0.0000 0.0000 0.0000 (102219 PWs)   bands (ev):

   -25.1511 -25.1496 -25.1194 -25.1178 -24.8815 -24.8808 -24.8803 -24.8796
   -21.9667 -21.9663 -21.9653 -21.9649 -20.8554 -20.8541 -20.8533 -20.8520
   -19.7777 -19.7761 -19.7684 -19.7663 -19.7653 -19.7605 -19.7527 -19.7513
   -19.2731 -19.2687 -19.2648 -19.2604 -17.0927 -17.0915 -17.0871 -17.0862
   -16.4099 -16.4028 -16.3954 -16.3879 -15.7324 -15.7225 -15.7203 -15.7176
   -15.6852 -15.6850 -15.6724 -15.6676 -15.6444 -15.6258 -15.6220 -15.6067
   -15.2455 -15.2294 -15.2165 -15.1948 -15.0759 -15.0631 -15.0577 -15.0403
   -13.4718 -13.4493 -13.4438 -13.4137 -13.3501 -13.3390 -13.3041 -13.2964
   -13.2724 -13.2552 -13.2525 -13.2295 -12.4351 -12.4304 -12.4213 -12.4173
   -11.5012 -11.4829 -11.4756 -11.4587 -10.9596 -10.9571 -10.9516 -10.9475
   -10.8413 -10.8342 -10.8306 -10.8161 -10.7029 -10.6902 -10.6586 -10.6567
   -10.1710 -10.1691 -10.1583 -10.1521  -9.9703  -9.9479  -9.9105  -9.8684
    -9.6158  -9.6112  -9.5481  -9.5329  -9.3446  -9.3230  -9.2379  -9.2112
    -8.8872  -8.8763  -8.7691  -8.7612  -8.5226  -8.5129  -8.5088  -8.5057
    -8.3342  -8.3217  -8.3193  -8.3087  -8.0430  -8.0326  -8.0298  -8.0125
    -7.8852  -7.8496  -7.8382  -7.7927  -7.5402  -7.5030  -7.4993  -7.4397
    -7.4298  -7.4122  -7.4036  -7.3587  -7.3453  -7.2710  -7.2154  -7.2041
    -7.2016  -7.1515  -7.1184  -7.1082  -6.9922  -6.9710  -6.9648  -6.9511
    -6.3352  -6.3268  -6.3023  -6.2834  -6.2573  -6.1998  -6.1950  -6.1904
    -6.0486  -6.0272  -5.9246  -5.9210  -5.9072  -5.8932  -5.8226  -5.7929
    -5.7753  -5.7654  -5.7438  -5.6706  -5.6693  -5.6328  -5.6029  -5.5898
    -5.5804  -5.5475  -5.5073  -5.4723  -5.3930  -5.3724  -5.3241  -5.2904
    -4.9781  -4.9296  -4.9040  -4.8920  -4.8844  -4.8186  -4.7746  -4.7620
    -4.7320  -4.7032  -4.4980  -4.4926  -4.4767  -4.4646  -4.4471  -4.4341
    -4.3833  -4.3787  -4.3437  -4.2924  -4.2703  -4.2400  -4.2194  -4.2067
    -4.0938  -4.0824  -4.0689  -4.0579  -3.7753  -3.7410  -3.5766  -3.5684
    -3.5320  -3.5099  -3.4884  -3.4795  -3.2846  -3.2590  -3.2352  -3.2328
    -3.1664  -3.1581  -3.1482  -3.1388  -3.1046  -3.0718  -2.9925  -2.9782
    -2.9636  -2.9618  -2.6746  -2.6631  -2.5728  -2.5321  -2.5059  -2.4713
    -2.4003  -2.3839  -2.3107  -2.3021  -2.2339  -2.2100  -2.2048  -2.1383
    -1.9974  -1.8933  -1.8871  -1.8745  -1.8287  -1.7712  -1.7502  -1.7233
    -1.6455  -1.6141  -1.6018  -1.5165  -1.5089  -1.4505  -1.4292  -1.4050
    -0.9423  -0.9239  -0.9235  -0.8951  -0.8924  -0.8528  -0.7827  -0.7467
    -0.6773  -0.6334  -0.5920  -0.5916  -0.5520  -0.4514  -0.4118  -0.4074
    -0.3878  -0.3721  -0.2824  -0.2686  -0.0934  -0.0631  -0.0307  -0.0233
     4.0699   4.0856   4.1206   4.1295   4.9948   4.9978

     highest occupied, lowest unoccupied level (ev):    -0.0233    4.0699

!    total energy              =   -1650.53268931 Ry
     estimated scf accuracy    <       0.00000008 Ry

     convergence has been achieved in   5 iterations

     Using ACE for calculation of exact exchange
     ACE projected onto   286 (nbndproj) and applied to   286 (nbnd) bands

!!   total energy              =   -1650.53268940 Ry
     Harris-Foulkes estimate   =   -1650.53268948 Ry
     est. exchange err (dexx)  =       0.00000010 Ry
     - averaged Fock potential =     231.22339294 Ry
     + Fock energy (ACE)       =    -115.61176779 Ry

     EXX self-consistency reached

     Writing all to output data dir ./outdir/4amp15_pbe0.save/

     init_run     :      3.90s CPU      2.24s WALL (       1 calls)
     electrons    :    444.50s CPU    173.27s WALL (       7 calls)

     Called by init_run:
     aceinit0     :      0.00s CPU      0.00s WALL (       1 calls)
     wfcinit      :      2.01s CPU      0.92s WALL (       1 calls)
     potinit      :      0.88s CPU      0.29s WALL (       1 calls)
     hinit0       :      0.86s CPU      0.85s WALL (       1 calls)

     Called by electrons:
     c_bands      :    353.69s CPU    146.28s WALL (      34 calls)
     sum_band     :     64.89s CPU     19.41s WALL (      34 calls)
     v_of_rho     :      4.17s CPU      1.16s WALL (      36 calls)
     mix_rho      :     21.44s CPU      5.67s WALL (      34 calls)

     Called by c_bands:
     init_us_2    :      0.95s CPU      0.50s WALL (      69 calls)
     init_us_2:cp :      0.95s CPU      0.50s WALL (      69 calls)
     regterg      :    351.22s CPU    145.20s WALL (      34 calls)

     Called by *egterg:
     rdiaghg      :     23.29s CPU     13.22s WALL (     170 calls)
     h_psi        :    255.82s CPU     85.00s WALL (     177 calls)
     g_psi        :      4.17s CPU      2.12s WALL (     142 calls)

     Called by h_psi:
     h_psi:calbec :     24.94s CPU     14.21s WALL (     177 calls)
     vloc_psi     :    211.55s CPU     61.50s WALL (     177 calls)
     add_vuspsi   :      6.73s CPU      2.41s WALL (     177 calls)

     General routines
     calbec       :     32.82s CPU     19.09s WALL (     307 calls)
     fft          :      3.84s CPU      1.40s WALL (     279 calls)
     ffts         :      9.87s CPU      2.62s WALL (     977 calls)
     fftw         :    269.07s CPU     78.52s WALL (   32620 calls)
     fftc         :   1662.66s CPU    421.69s WALL (  560560 calls)
     fftcw        :     13.88s CPU      4.18s WALL (    4004 calls)

     Parallel routines

     EXX routines
     exx_grid     :      0.00s CPU      0.00s WALL (       1 calls)
     exxinit      :      6.60s CPU      2.41s WALL (       7 calls)
     vexx         :   1886.02s CPU    479.63s WALL (       7 calls)
     matcalc      :      7.91s CPU      4.89s WALL (     130 calls)
     aceupdate    :      0.19s CPU      0.06s WALL (       7 calls)
     vexxace      :     10.32s CPU      5.70s WALL (     110 calls)
     aceinit      :   1886.65s CPU    479.97s WALL (       7 calls)

     PWSCF        :  39m 5.63s CPU  11m 1.77s WALL


   This run was terminated on:  15:40:35   8Jan2024            

=------------------------------------------------------------------------------=
   JOB DONE.
=------------------------------------------------------------------------------=
