WARNING: Linux kernel CMA support was requested via the
btl_vader_single_copy_mechanism MCA variable, but CMA support is
not available due to restrictive ptrace settings.

The vader shared memory BTL will fall back on another single-copy
mechanism if one is available. This may result in lower performance.

  Local host: superquantumcomputerpromax
--------------------------------------------------------------------------

     Program PWSCF v.7.2 starts on  8Jan2024 at 15: 5:28 

     This program is part of the open-source Quantum ESPRESSO suite
     for quantum simulation of materials; please cite
         "P. Giannozzi et al., J. Phys.:Condens. Matter 21 395502 (2009);
         "P. Giannozzi et al., J. Phys.:Condens. Matter 29 465901 (2017);
         "P. Giannozzi et al., J. Chem. Phys. 152 154105 (2020);
          URL http://www.quantum-espresso.org", 
     in publications or presentations arising from this work. More details at
     http://www.quantum-espresso.org/quote

     Parallel version (MPI & OpenMP), running on     360 processor cores
     Number of MPI processes:                90
     Threads/MPI process:                     4

     MPI processes distributed on     1 nodes
     709694 MiB available memory on the printing compute node when the environment starts

     Reading input from 4amp15_pbe0_relax.in

     Current dimensions of program PWSCF are:
     Max number of different atomic species (ntypx) = 10
     Max number of k-points (npk) =  40000
     Max angular momentum in pseudopotentials (lmaxx) =  4

     IMPORTANT: XC functional enforced from input :
     Exchange-correlation= PBE0
                           (   6   4   8   4   0   0   0)
     EXX-fraction              =        0.25
     Any further DFT definition will be discarded
     Please, verify this is what you really want


     gamma-point specific algorithms are used
     Message from routine setup:
     using ibrav=0 with symmetry is DISCOURAGED, use correct ibrav instead

     R & G space division:  proc/nbgrp/npool/nimage =      90
     Subspace diagonalization in iterative solution of the eigenvalue problem:
     one sub-group per band group will be used
     ELPA distributed-memory algorithm (size of sub-group:  3*  3 procs)

     EXX: q-point mesh:     1    1    1
     EXX: grid of k+q points same as grid of k-points

     Parallelization info
     --------------------
     sticks:   dense  smooth     PW     G-vecs:    dense   smooth      PW
     Min         114     114     27                18148    18148    2260
     Max         116     116     30                18196    18196    2292
     Sum       10419   10419   2595              1636139  1636139  204437

     Using Slab Decomposition



     bravais-lattice index     =            0
     lattice parameter (alat)  =      30.7969  a.u.
     unit-cell volume          =   12112.4072 (a.u.)^3
     number of atoms/cell      =          196
     number of atomic types    =            4
     number of electrons       =       560.00
     number of Kohn-Sham states=          280
     kinetic-energy cutoff     =     100.0000  Ry
     charge density cutoff     =     400.0000  Ry
     cutoff for Fock operator  =     100.0000  Ry
     scf convergence threshold =      1.0E-07
     mixing beta               =       0.7000
     number of iterations used =            8  local-TF  mixing
     energy convergence thresh.=      1.0E-04
     force convergence thresh. =      1.0E-03
     Exchange-correlation= PBE0
                           (   6   4   8   4   0   0   0)
     EXX-fraction              =        0.25
     nstep                     =           50


     celldm(1)=  30.796867  celldm(2)=   0.000000  celldm(3)=   0.000000
     celldm(4)=   0.000000  celldm(5)=   0.000000  celldm(6)=   0.000000

     crystal axes: (cart. coord. in units of alat)
               a(1) = (   1.000000   0.000000   0.000000 )  
               a(2) = (   0.000000   0.345487   0.000000 )  
               a(3) = (  -0.937552   0.000000   1.200271 )  

     reciprocal axes: (cart. coord. in units 2 pi/alat)
               b(1) = (  1.000000 -0.000000  0.781117 )  
               b(2) = (  0.000000  2.894466 -0.000000 )  
               b(3) = (  0.000000  0.000000  0.833145 )  


     PseudoPot. # 1 for O  read from file:
     /home/yongkeat1017/miniconda3/pp/O_ONCV_PBE-1.2.upf
     MD5 check sum: e36c48deb68f4e355fffe4602be2c42c
     Pseudo is Norm-conserving, Zval =  6.0
     Generated using ONCVPSP code by D. R. Hamann
     Using radial grid of  602 points,  4 beta functions with: 
                l(1) =   0
                l(2) =   0
                l(3) =   1
                l(4) =   1

     PseudoPot. # 2 for N  read from file:
     /home/yongkeat1017/miniconda3/pp/N_ONCV_PBE-1.2.upf
     MD5 check sum: c233fa8df51455e992258b7c3dee8a9f
     Pseudo is Norm-conserving, Zval =  5.0
     Generated using ONCVPSP code by D. R. Hamann
     Using radial grid of  602 points,  4 beta functions with: 
                l(1) =   0
                l(2) =   0
                l(3) =   1
                l(4) =   1

     PseudoPot. # 3 for C  read from file:
     /home/yongkeat1017/miniconda3/pp/C_ONCV_PBE-1.2.upf
     MD5 check sum: 1a5f83a7b1f58d24996abe00ed223ac6
     Pseudo is Norm-conserving, Zval =  4.0
     Generated using ONCVPSP code by D. R. Hamann
     Using radial grid of  602 points,  4 beta functions with: 
                l(1) =   0
                l(2) =   0
                l(3) =   1
                l(4) =   1

     PseudoPot. # 4 for H  read from file:
     /home/yongkeat1017/miniconda3/pp/H_ONCV_PBE-1.2.upf
     MD5 check sum: bf21e08b90ac4ce7d0149ac4e8138190
     Pseudo is Norm-conserving, Zval =  1.0
     Generated using ONCVPSP code by D. R. Hamann
     Using radial grid of  602 points,  2 beta functions with: 
                l(1) =   0
                l(2) =   0

     atomic species   valence    mass     pseudopotential
        O              6.00    16.00000     O ( 1.00)
        N              5.00    14.00000     N ( 1.00)
        C              4.00    12.00000     C ( 1.00)
        H              1.00     1.00000     H ( 1.00)

      4 Sym. Ops., with inversion, found ( 2 have fractional translation)



   Cartesian axes

     site n.     atom                  positions (alat units)
         1           O   tau(   1) = (  -0.2800852   0.2365203   0.5805470  )
         2           O   tau(   2) = (   0.0031429   0.2647121   0.6679628  )
         3           O   tau(   3) = (   0.2341418   0.3276943   0.7379026  )
         4           N   tau(   4) = (  -0.4499559   0.1674920   0.7842690  )
         5           C   tau(   5) = (  -0.1110941   0.0945252   0.8006407  )
         6           H   tau(   6) = (  -0.1381922   0.1348750   0.8305647  )
         7           C   tau(   7) = (  -0.0585801   0.0439114   0.8383892  )
         8           H   tau(   8) = (  -0.0493887   0.0499135   0.8943855  )
         9           C   tau(   9) = (  -0.0184814   0.3293872   0.7966558  )
        10           H   tau(  10) = (   0.0179337   0.2946250   0.8235863  )
        11           C   tau(  11) = (  -0.0322373   0.3211992   0.7158176  )
        12           C   tau(  12) = (  -0.0854918   0.0268443   0.6770968  )
        13           H   tau(  13) = (  -0.0949550   0.0203381   0.6212002  )
        14           C   tau(  14) = (  -0.1251080   0.0870972   0.7184942  )
        15           C   tau(  15) = (  -0.1793886   0.1400949   0.6742762  )
        16           H   tau(  16) = (  -0.1880635   0.1273126   0.6193470  )
        17           C   tau(  17) = (  -0.2175367   0.2036300   0.7019904  )
        18           H   tau(  18) = (  -0.2098992   0.2186514   0.7565092  )
        19           C   tau(  19) = (  -0.2715626   0.2521363   0.6517111  )
        20           C   tau(  20) = (  -0.3164554   0.3199900   0.6879833  )
        21           C   tau(  21) = (  -0.3672215   0.0196582   0.6392403  )
        22           H   tau(  22) = (  -0.3715580   0.0065947   0.5838562  )
        23           C   tau(  23) = (  -0.4114353   0.0828823   0.6693431  )
        24           H   tau(  24) = (  -0.4450277   0.1131701   0.6345844  )
        25           C   tau(  25) = (  -0.4069638   0.1024023   0.7500973  )
        26           C   tau(  26) = (  -0.3551784   0.0592510   0.7984442  )
        27           H   tau(  27) = (  -0.3494910   0.0735970   0.8533818  )
        28           C   tau(  28) = (  -0.3115364   0.3413065   0.7683054  )
        29           H   tau(  29) = (  -0.2775065   0.3116243   0.8031697  )
        30           C   tau(  30) = (  -0.5216017   0.1806551   0.7603236  )
        31           H   tau(  31) = (  -0.5445156   0.1447518   0.7223650  )
        32           C   tau(  32) = (  -0.5701342   0.2484742   0.7885300  )
        33           C   tau(  33) = (   0.3547986   0.2585969   0.7545623  )
        34           H   tau(  34) = (   0.3357555   0.2208884   0.7161788  )
        35           C   tau(  35) = (   0.3070882   0.3233066   0.7760832  )
        36           C   tau(  36) = (   0.3336764   0.0316466   0.8329400  )
        37           H   tau(  37) = (   0.3009269   0.0757404   0.8484991  )
        38           C   tau(  38) = (  -0.5912813   0.0206947   0.8671957  )
        39           H   tau(  39) = (  -0.5729004   0.0575554   0.9066930  )
        40           C   tau(  40) = (  -0.5428585   0.3029920   0.8451468  )
        41           H   tau(  41) = (  -0.4911264   0.2967891   0.8685196  )
        42           C   tau(  42) = (   0.0583258   0.2095724   0.7035748  )
        43           H   tau(  43) = (   0.0793245   0.1732734   0.6621691  )
        44           H   tau(  44) = (   0.0307581   0.1781496   0.7450586  )
        45           H   tau(  45) = (   0.1029453   0.2393782   0.7279379  )
        46           C   tau(  46) = (   0.1897708   0.0548288   0.7465325  )
        47           H   tau(  47) = (   0.1420491   0.0529010   0.7120379  )
        48           H   tau(  48) = (   0.2235316   0.1004576   0.7308078  )
        49           H   tau(  49) = (   0.1731438   0.0611301   0.8026956  )
        50           O   tau(  50) = (   0.8113092   0.0637769   0.0195884  )
        51           O   tau(  51) = (  -0.4094709   0.0919686   1.1324436  )
        52           O   tau(  52) = (  -0.6404698   0.1549509   1.0625038  )
        53           N   tau(  53) = (   0.0436278   0.3402355   1.0161374  )
        54           C   tau(  54) = (  -0.2952339   0.2672687   0.9997657  )
        55           H   tau(  55) = (  -0.2681358   0.3076184   0.9698417  )
        56           C   tau(  56) = (  -0.3477479   0.2166548   0.9620171  )
        57           H   tau(  57) = (  -0.3569393   0.2226570   0.9060209  )
        58           C   tau(  58) = (  -0.3878466   0.1566438   1.0037506  )
        59           H   tau(  59) = (  -0.4242618   0.1218816   0.9768201  )
        60           C   tau(  60) = (  -0.3740908   0.1484557   1.0845888  )
        61           C   tau(  61) = (  -0.3208362   0.1995878   1.1233095  )
        62           H   tau(  62) = (  -0.3113730   0.1930816   1.1792062  )
        63           C   tau(  63) = (  -0.2812200   0.2598407   1.0819122  )
        64           C   tau(  64) = (  -0.2269394   0.3128384   1.1261302  )
        65           H   tau(  65) = (  -0.2182646   0.3000561   1.1810594  )
        66           C   tau(  66) = (  -0.1887913   0.0308865   1.0984159  )
        67           H   tau(  67) = (  -0.1964289   0.0459080   1.0438972  )
        68           C   tau(  68) = (  -0.1347654   0.0793929   1.1486953  )
        69           C   tau(  69) = (  -0.0898726   0.1472465   1.1124231  )
        70           C   tau(  70) = (  -0.0391066   0.1924017   1.1611661  )
        71           H   tau(  71) = (   0.9027820   0.1793381   0.0162793  )
        72           C   tau(  72) = (   0.0051072   0.2556258   1.1310633  )
        73           H   tau(  73) = (   0.0386997   0.2859136   1.1658219  )
        74           C   tau(  74) = (   0.0006357   0.2751458   1.0503091  )
        75           C   tau(  75) = (  -0.0511497   0.2319945   1.0019622  )
        76           H   tau(  76) = (  -0.0568370   0.2463405   0.9470246  )
        77           C   tau(  77) = (  -0.0947916   0.1685631   1.0321010  )
        78           H   tau(  78) = (  -0.1288215   0.1388809   0.9972367  )
        79           C   tau(  79) = (   0.1152737   0.0079116   1.0400828  )
        80           H   tau(  80) = (   0.1381876   0.3174952   1.0780413  )
        81           C   tau(  81) = (   0.1638062   0.0757307   1.0118764  )
        82           C   tau(  82) = (  -0.7611266   0.0858535   1.0458441  )
        83           H   tau(  83) = (  -0.7420835   0.0481450   1.0842275  )
        84           C   tau(  84) = (  -0.7134163   0.1505632   1.0243232  )
        85           C   tau(  85) = (  -0.7400044   0.2043900   0.9674664  )
        86           H   tau(  86) = (  -0.7072549   0.2484839   0.9519073  )
        87           C   tau(  87) = (   0.1849533   0.1934381   0.9332106  )
        88           H   tau(  88) = (   0.1665723   0.2302988   0.8937133  )
        89           C   tau(  89) = (   0.1365305   0.1302486   0.9552596  )
        90           H   tau(  90) = (   0.0847984   0.1240457   0.9318867  )
        91           C   tau(  91) = (  -0.4646538   0.0368289   1.0968316  )
        92           H   tau(  92) = (  -0.4856525   0.0005300   1.1382373  )
        93           H   tau(  93) = (  -0.4370861   0.0054062   1.0553478  )
        94           H   tau(  94) = (  -0.5092733   0.0666347   1.0724685  )
        95           C   tau(  95) = (  -0.5960988   0.2275722   1.0538739  )
        96           H   tau(  96) = (  -0.5483771   0.2256444   1.0883685  )
        97           H   tau(  97) = (  -0.6298597   0.2732010   1.0695986  )
        98           H   tau(  98) = (  -0.5794719   0.2338736   0.9977108  )
        99           O   tau(  99) = (   0.3425331   0.1089666   0.6197239  )
       100           O   tau( 100) = (   0.0593051   0.0807748   0.5323081  )
       101           O   tau( 101) = (  -0.1716938   0.0177926   0.4623684  )
       102           N   tau( 102) = (   0.5124038   0.1779949   0.4160019  )
       103           C   tau( 103) = (   0.1735421   0.2509617   0.3996302  )
       104           H   tau( 104) = (   0.2006402   0.2106119   0.3697062  )
       105           C   tau( 105) = (   0.1210281   0.3015755   0.3618817  )
       106           H   tau( 106) = (   0.1118367   0.2955734   0.3058854  )
       107           C   tau( 107) = (   0.0809294   0.0160997   0.4036151  )
       108           H   tau( 108) = (   0.0445142   0.0508619   0.3766846  )
       109           C   tau( 109) = (   0.0946853   0.0242877   0.4844533  )
       110           C   tau( 110) = (   0.1479398   0.3186426   0.5231741  )
       111           H   tau( 111) = (   0.1574030   0.3251488   0.5790707  )
       112           C   tau( 112) = (   0.1875560   0.2583897   0.4817767  )
       113           C   tau( 113) = (   0.2418366   0.2053920   0.5259947  )
       114           H   tau( 114) = (   0.2505115   0.2181743   0.5809239  )
       115           C   tau( 115) = (   0.2799847   0.1418569   0.4982805  )
       116           H   tau( 116) = (   0.2723471   0.1268355   0.4437618  )
       117           C   tau( 117) = (   0.3340106   0.0933506   0.5485598  )
       118           C   tau( 118) = (   0.3789034   0.0254969   0.5122876  )
       119           C   tau( 119) = (   0.4296694   0.3258287   0.5610306  )
       120           H   tau( 120) = (   0.4340060   0.3388922   0.6164147  )
       121           C   tau( 121) = (   0.4738832   0.2626046   0.5309278  )
       122           H   tau( 122) = (   0.5074757   0.2323168   0.5656865  )
       123           C   tau( 123) = (   0.4694117   0.2430846   0.4501736  )
       124           C   tau( 124) = (   0.4176263   0.2862359   0.4018267  )
       125           H   tau( 125) = (   0.4119390   0.2718899   0.3468891  )
       126           C   tau( 126) = (   0.3739844   0.0041804   0.4319655  )
       127           H   tau( 127) = (   0.3399545   0.0338626   0.3971012  )
       128           C   tau( 128) = (   0.5840497   0.1648318   0.4399473  )
       129           H   tau( 129) = (   0.6069636   0.2007351   0.4779059  )
       130           C   tau( 130) = (   0.6325822   0.0970127   0.4117409  )
       131           C   tau( 131) = (  -0.2923506   0.0868900   0.4457086  )
       132           H   tau( 132) = (  -0.2733075   0.1245985   0.4840921  )
       133           C   tau( 133) = (  -0.2446403   0.0221803   0.4241877  )
       134           C   tau( 134) = (  -0.2712284   0.3138403   0.3673309  )
       135           H   tau( 135) = (  -0.2384789   0.2697465   0.3517718  )
       136           C   tau( 136) = (   0.6537293   0.3247922   0.3330752  )
       137           H   tau( 137) = (   0.6353483   0.2879315   0.2935779  )
       138           C   tau( 138) = (   0.6053065   0.0424949   0.3551242  )
       139           H   tau( 139) = (   0.5535744   0.0486978   0.3317513  )
       140           C   tau( 140) = (   0.0041222   0.1359145   0.4966961  )
       141           H   tau( 141) = (  -0.0168765   0.1722135   0.5381019  )
       142           H   tau( 142) = (   0.0316899   0.1673373   0.4552123  )
       143           H   tau( 143) = (  -0.0404973   0.1061087   0.4723330  )
       144           C   tau( 144) = (  -0.1273228   0.2906581   0.4537384  )
       145           H   tau( 145) = (  -0.0796011   0.2925859   0.4882330  )
       146           H   tau( 146) = (  -0.1610837   0.2450293   0.4694632  )
       147           H   tau( 147) = (  -0.1106959   0.2843568   0.3975753  )
       148           O   tau( 148) = (  -0.7488612   0.2817100   1.1806825  )
       149           O   tau( 149) = (   0.4719189   0.2535183   0.0678273  )
       150           O   tau( 150) = (   0.7029178   0.1905360   0.1377671  )
       151           N   tau( 151) = (   0.0188201   0.0052514   0.1841336  )
       152           C   tau( 152) = (   0.3576819   0.0782182   0.2005053  )
       153           H   tau( 153) = (   0.3305838   0.0378685   0.2304292  )
       154           C   tau( 154) = (   0.4101959   0.1288321   0.2382538  )
       155           H   tau( 155) = (   0.4193873   0.1228299   0.2942500  )
       156           C   tau( 156) = (   0.4502946   0.1888431   0.1965204  )
       157           H   tau( 157) = (   0.4867098   0.2236053   0.2234508  )
       158           C   tau( 158) = (   0.4365387   0.1970312   0.1156821  )
       159           C   tau( 159) = (   0.3832842   0.1458991   0.0769614  )
       160           H   tau( 160) = (   0.3738210   0.1524053   0.0210648  )
       161           C   tau( 161) = (   0.3436680   0.0856462   0.1183587  )
       162           C   tau( 162) = (   0.2893874   0.0326485   0.0741407  )
       163           H   tau( 163) = (   0.2807125   0.0454308   0.0192115  )
       164           C   tau( 164) = (   0.2512393   0.3146004   0.1018550  )
       165           H   tau( 165) = (   0.2588768   0.2995789   0.1563737  )
       166           C   tau( 166) = (   0.1972134   0.2660940   0.0515756  )
       167           C   tau( 167) = (   0.1523206   0.1982404   0.0878478  )
       168           C   tau( 168) = (   0.1015546   0.1530852   0.0391048  )
       169           H   tau( 169) = (  -0.8403340   0.1661488   1.1839916  )
       170           C   tau( 170) = (   0.0573408   0.0898611   0.0692076  )
       171           H   tau( 171) = (   0.0237483   0.0595733   0.0344490  )
       172           C   tau( 172) = (   0.0618123   0.0703411   0.1499618  )
       173           C   tau( 173) = (   0.1135977   0.1134924   0.1983088  )
       174           H   tau( 174) = (   0.1192850   0.0991464   0.2532464  )
       175           C   tau( 175) = (   0.1572396   0.1769238   0.1681700  )
       176           H   tau( 176) = (   0.1912695   0.2066060   0.2030342  )
       177           C   tau( 177) = (  -0.0528257   0.3375752   0.1601882  )
       178           H   tau( 178) = (  -0.0757396   0.0279917   0.1222296  )
       179           C   tau( 179) = (  -0.1013582   0.2697562   0.1883945  )
       180           C   tau( 180) = (   0.8235746   0.2596334   0.1544269  )
       181           H   tau( 181) = (   0.8045315   0.2973419   0.1160434  )
       182           C   tau( 182) = (   0.7758643   0.1949237   0.1759477  )
       183           C   tau( 183) = (   0.8024524   0.1410968   0.2328045  )
       184           H   tau( 184) = (   0.7697029   0.0970030   0.2483637  )
       185           C   tau( 185) = (  -0.1225053   0.1520488   0.2670603  )
       186           H   tau( 186) = (  -0.1041243   0.1151881   0.3065576  )
       187           C   tau( 187) = (  -0.0740825   0.2152383   0.2450113  )
       188           H   tau( 188) = (  -0.0223504   0.2214412   0.2683842  )
       189           C   tau( 189) = (   0.5271018   0.3086580   0.1034393  )
       190           H   tau( 190) = (   0.5481005   0.3449569   0.0620336  )
       191           H   tau( 191) = (   0.4995341   0.3400807   0.1449231  )
       192           H   tau( 192) = (   0.5717213   0.2788522   0.1278024  )
       193           C   tau( 193) = (   0.6585468   0.1179147   0.1463970  )
       194           H   tau( 194) = (   0.6108251   0.1198425   0.1119025  )
       195           H   tau( 195) = (   0.6923076   0.0722859   0.1306723  )
       196           H   tau( 196) = (   0.6419198   0.1116133   0.2025601  )

     number of k points=     1
                       cart. coord. in units 2pi/alat
        k(    1) = (   0.0000000   0.0000000   0.0000000), wk =   2.0000000

     Dense  grid:   818070 G-vectors     FFT dimensions: ( 200,  72, 300)

     Estimated max dynamical RAM per process >      83.37 MB

     Estimated total dynamical RAM >       7.33 GB
     EXX: ACE will be initialized later

     Initial potential from superposition of free atoms

     starting charge     559.1302, renormalised to     560.0000
     Starting wfcs are random

     total cpu time spent up to now is        3.7 secs

     per-process dynamical memory:    49.7 Mb

     Self-consistent Calculation

     iteration #  1     ecut=   100.00 Ry     beta= 0.70
     Davidson diagonalization with overlap
[superquantumcomputerpromax:05409] 89 more processes have sent help message help-btl-vader.txt / cma-permission-denied
[superquantumcomputerpromax:05409] Set MCA parameter "orte_base_help_aggregate" to 0 to see all help / error messages
     ethr =  1.00E-02,  avg # of iterations = 15.0

     total cpu time spent up to now is       18.6 secs

     total energy              =   -1652.23896708 Ry
     estimated scf accuracy    <      28.38354768 Ry

     iteration #  2     ecut=   100.00 Ry     beta= 0.70
     Davidson diagonalization with overlap
     ethr =  5.07E-03,  avg # of iterations =  2.0

     total cpu time spent up to now is       21.6 secs

     total energy              =   -1650.15359012 Ry
     estimated scf accuracy    <       6.82867647 Ry

     iteration #  3     ecut=   100.00 Ry     beta= 0.70
     Davidson diagonalization with overlap
     ethr =  1.22E-03,  avg # of iterations =  4.0

     total cpu time spent up to now is       25.9 secs

     total energy              =   -1651.70320811 Ry
     estimated scf accuracy    <       0.53182984 Ry

     iteration #  4     ecut=   100.00 Ry     beta= 0.70
     Davidson diagonalization with overlap
     ethr =  9.50E-05,  avg # of iterations =  5.0

     total cpu time spent up to now is       31.3 secs

     total energy              =   -1651.78599117 Ry
     estimated scf accuracy    <       0.15762290 Ry

     iteration #  5     ecut=   100.00 Ry     beta= 0.70
     Davidson diagonalization with overlap
     ethr =  2.81E-05,  avg # of iterations =  5.0

     total cpu time spent up to now is       37.3 secs

     total energy              =   -1651.80821321 Ry
     estimated scf accuracy    <       0.02733995 Ry

     iteration #  6     ecut=   100.00 Ry     beta= 0.70
     Davidson diagonalization with overlap
     ethr =  4.88E-06,  avg # of iterations =  4.0

     total cpu time spent up to now is       41.6 secs

     total energy              =   -1651.80785441 Ry
     estimated scf accuracy    <       0.01165331 Ry

     iteration #  7     ecut=   100.00 Ry     beta= 0.70
     Davidson diagonalization with overlap
     ethr =  2.08E-06,  avg # of iterations =  5.0

     total cpu time spent up to now is       45.5 secs

     total energy              =   -1651.80885001 Ry
     estimated scf accuracy    <       0.00431902 Ry

     iteration #  8     ecut=   100.00 Ry     beta= 0.70
     Davidson diagonalization with overlap
     ethr =  7.71E-07,  avg # of iterations =  4.0

     total cpu time spent up to now is       48.8 secs

     total energy              =   -1651.80821235 Ry
     estimated scf accuracy    <       0.00262600 Ry

     iteration #  9     ecut=   100.00 Ry     beta= 0.70
     Davidson diagonalization with overlap
     ethr =  4.69E-07,  avg # of iterations =  6.0

     total cpu time spent up to now is       53.9 secs

     total energy              =   -1651.80835653 Ry
     estimated scf accuracy    <       0.00127261 Ry

     iteration # 10     ecut=   100.00 Ry     beta= 0.70
     Davidson diagonalization with overlap
     ethr =  2.27E-07,  avg # of iterations =  5.0

     total cpu time spent up to now is       57.8 secs

     End of self-consistent calculation

          k = 0.0000 0.0000 0.0000 (102219 PWs)   bands (ev):

   -20.6569 -20.6382 -20.6229 -20.6044 -20.5338 -20.5330 -20.5309 -20.5269
   -19.5943 -19.5940 -19.5790 -19.5701 -17.4100 -17.4048 -17.3839 -17.3786
   -15.5561 -15.5535 -15.5420 -15.5384 -15.5086 -15.4999 -15.4976 -15.4920
   -15.2057 -15.1876 -15.1827 -15.1650 -13.9058 -13.9017 -13.8956 -13.8924
   -13.1627 -13.1538 -13.1402 -13.1296 -12.9921 -12.9841 -12.9621 -12.9574
   -12.8885 -12.8732 -12.8665 -12.8507 -12.7835 -12.7520 -12.6925 -12.6651
   -12.5047 -12.4876 -12.4850 -12.4707 -12.1633 -12.1501 -12.1471 -12.1372
   -11.5154 -11.5032 -11.4786 -11.4612 -11.3705 -11.3566 -11.3384 -11.3307
   -10.4854 -10.4750 -10.4730 -10.4631  -9.9230  -9.9209  -9.8972  -9.8949
    -9.3403  -9.3373  -9.3245  -9.3202  -9.2364  -9.2125  -9.2071  -9.1908
    -9.1823  -9.1614  -9.1480  -9.1427  -8.9580  -8.9443  -8.9378  -8.9226
    -8.2689  -8.2501  -8.2270  -8.1940  -8.0113  -7.9897  -7.9515  -7.9293
    -7.7141  -7.7107  -7.6063  -7.5898  -7.3026  -7.2765  -7.2309  -7.2277
    -7.1823  -7.1712  -7.1684  -7.1471  -6.9852  -6.9728  -6.8744  -6.8626
    -6.3416  -6.3312  -6.3134  -6.2954  -6.1438  -6.1304  -6.1092  -6.0668
    -6.0596  -6.0339  -6.0230  -6.0200  -5.7332  -5.7149  -5.6694  -5.6386
    -5.6300  -5.6198  -5.5836  -5.5771  -5.5730  -5.5409  -5.5072  -5.4698
    -5.3878  -5.3807  -5.3737  -5.3696  -5.3687  -5.3597  -5.3520  -5.3353
    -5.1617  -5.1397  -5.1175  -5.0840  -4.9442  -4.9365  -4.8809  -4.8723
    -4.6143  -4.5927  -4.5851  -4.5786  -4.5282  -4.4450  -4.4399  -4.4190
    -4.4135  -4.3517  -4.3275  -4.3162  -4.3080  -4.2941  -4.2594  -4.2049
    -4.1900  -4.1423  -4.0993  -4.0884  -3.9600  -3.9531  -3.9122  -3.9063
    -3.8175  -3.8126  -3.7832  -3.7681  -3.7418  -3.7305  -3.7285  -3.7230
    -3.5760  -3.5675  -3.5644  -3.5490  -3.4977  -3.4541  -3.3756  -3.3209
    -3.3200  -3.2979  -3.2835  -3.2424  -3.2164  -3.2071  -3.1739  -3.1570
    -2.9049  -2.8856  -2.8824  -2.8692  -2.6991  -2.6859  -2.6395  -2.6121
    -2.5732  -2.5214  -2.5105  -2.4684  -2.4585  -2.4556  -2.4426  -2.4414
    -2.4044  -2.4003  -2.3807  -2.3776  -2.3174  -2.2822  -2.2230  -2.2197
    -1.9967  -1.9842  -1.9325  -1.9089  -1.8374  -1.8200  -1.7889  -1.7777
    -1.6234  -1.6215  -1.6140  -1.6090  -1.4188  -1.4024  -1.3326  -1.2716
    -1.2701  -1.2214  -1.1252  -1.1224  -0.7972  -0.7856  -0.7504  -0.7456
    -0.6461  -0.6421  -0.6000  -0.5954  -0.1876  -0.1655   0.0158   0.0380
     0.2356   0.2641   0.2790   0.3301   0.3562   0.3633   0.3896   0.4280
     0.8391   0.8524   0.8775   0.8889   0.8960   0.9129   0.9286   0.9368
     0.9566   0.9599   0.9735   0.9745   1.0608   1.0653   1.1865   1.1917

     highest occupied level (ev):     1.1917

!    total energy              =   -1651.80804861 Ry
     estimated scf accuracy    <       0.00056557 Ry

     convergence has been achieved in  10 iterations

     Using ACE for calculation of exact exchange

     EXX grid:   102219 G-vectors     FFT dimensions: ( 100,  36, 150)
     ACE projected onto   280 (nbndproj) and applied to   280 (nbnd) bands

     EXX: now go back to refine exchange calculation

     total cpu time spent up to now is      108.7 secs

     per-process dynamical memory:    86.7 Mb

     Self-consistent Calculation

     iteration #  1     ecut=   100.00 Ry     beta= 0.70
     Davidson diagonalization with overlap
     ethr =  2.27E-07,  avg # of iterations =  9.0

     total cpu time spent up to now is      119.5 secs

     total energy              =   -1651.74076430 Ry
     estimated scf accuracy    <       0.02347608 Ry

     iteration #  2     ecut=   100.00 Ry     beta= 0.70
     Davidson diagonalization with overlap
     ethr =  4.19E-06,  avg # of iterations =  2.0

     total cpu time spent up to now is      125.1 secs

     total energy              =   -1651.73927471 Ry
     estimated scf accuracy    <       0.00600147 Ry

     iteration #  3     ecut=   100.00 Ry     beta= 0.70
     Davidson diagonalization with overlap
     ethr =  1.07E-06,  avg # of iterations =  3.0

     total cpu time spent up to now is      129.7 secs

     total energy              =   -1651.73974045 Ry
     estimated scf accuracy    <       0.00133970 Ry

     iteration #  4     ecut=   100.00 Ry     beta= 0.70
     Davidson diagonalization with overlap
     ethr =  2.39E-07,  avg # of iterations =  2.0

     total cpu time spent up to now is      133.3 secs

     End of self-consistent calculation

          k = 0.0000 0.0000 0.0000 (102219 PWs)   bands (ev):

   -24.0799 -24.0485 -24.0434 -24.0119 -23.9113 -23.9093 -23.9082 -23.9018
   -22.9320 -22.9231 -22.9050 -22.9041 -20.4444 -20.4383 -20.4053 -20.3996
   -18.5270 -18.5216 -18.5064 -18.5016 -18.4439 -18.4368 -18.4160 -18.4118
   -18.0730 -18.0536 -18.0431 -18.0238 -16.7344 -16.7270 -16.7252 -16.7174
   -15.8624 -15.8520 -15.8335 -15.8215 -15.6995 -15.6919 -15.6653 -15.6590
   -15.5684 -15.5534 -15.5403 -15.5268 -15.4240 -15.3886 -15.3293 -15.2952
   -15.1644 -15.1436 -15.1429 -15.1240 -14.7908 -14.7788 -14.7708 -14.7619
   -14.1012 -14.0874 -14.0639 -14.0465 -13.9401 -13.9271 -13.9013 -13.8929
   -12.8918 -12.8807 -12.8748 -12.8644 -12.2753 -12.2739 -12.2495 -12.2480
   -11.6280 -11.6245 -11.6064 -11.6022 -11.5584 -11.5295 -11.5183 -11.4812
   -11.4702 -11.4429 -11.4409 -11.4187 -11.2008 -11.1868 -11.1833 -11.1677
   -10.4080 -10.3855 -10.3766 -10.3475 -10.1163 -10.0991 -10.0592 -10.0339
    -9.7645  -9.7616  -9.6542  -9.6275  -9.3714  -9.3611  -9.3185  -9.3032
    -9.2397  -9.2210  -9.2145  -9.1738  -9.0258  -9.0072  -8.8946  -8.8759
    -8.3238  -8.3138  -8.2870  -8.2693  -8.1211  -8.1002  -8.0569  -8.0144
    -8.0050  -7.9683  -7.9673  -7.9530  -7.6938  -7.6749  -7.6291  -7.5982
    -7.5913  -7.5734  -7.5498  -7.5295  -7.5161  -7.4821  -7.4479  -7.4097
    -7.3273  -7.3164  -7.3137  -7.2991  -7.2554  -7.2287  -7.2187  -7.1937
    -7.0150  -6.9835  -6.9573  -6.9258  -6.8006  -6.7884  -6.7223  -6.7155
    -6.4840  -6.4618  -6.4459  -6.4197  -6.3141  -6.2891  -6.2625  -6.2471
    -6.1967  -6.1390  -6.1039  -6.0824  -6.0784  -6.0544  -6.0271  -6.0165
    -5.9924  -5.9620  -5.9229  -5.9075  -5.6976  -5.6904  -5.6538  -5.6379
    -5.5946  -5.5814  -5.5313  -5.5075  -5.3552  -5.3457  -5.3400  -5.3309
    -5.2251  -5.2108  -5.2080  -5.1899  -5.0954  -5.0910  -5.0372  -5.0362
    -5.0338  -4.9787  -4.9552  -4.9065  -4.7933  -4.7897  -4.7224  -4.7121
    -4.5798  -4.5578  -4.5453  -4.5345  -4.3601  -4.3449  -4.3288  -4.2943
    -4.1939  -4.1406  -4.1266  -4.1118  -4.0876  -4.0846  -4.0756  -4.0671
    -4.0387  -4.0179  -4.0076  -3.9636  -3.8936  -3.8468  -3.8466  -3.8408
    -3.5697  -3.5357  -3.5135  -3.4614  -3.3374  -3.3130  -3.2960  -3.2795
    -3.2430  -3.2318  -3.2290  -3.2254  -3.1035  -3.0822  -3.0139  -2.9751
    -2.8405  -2.8186  -2.6931  -2.6870  -2.1106  -2.0964  -2.0675  -2.0554
    -1.9077  -1.8823  -1.8615  -1.8311  -1.2099  -1.1789  -1.0308  -1.0278
    -0.9887  -0.9423  -0.8960  -0.8111  -0.7887  -0.7582  -0.7535  -0.7411
    -0.7336  -0.7228  -0.7180  -0.7029  -0.3061  -0.2425  -0.2373  -0.1963
    -0.1771  -0.1539  -0.1253  -0.1150   0.0490   0.0665   0.1519   0.1757

     highest occupied level (ev):     0.1757

!    total energy              =   -1651.73919709 Ry
     estimated scf accuracy    <       0.00070161 Ry

     convergence has been achieved in   4 iterations

     Using ACE for calculation of exact exchange
     ACE projected onto   280 (nbndproj) and applied to   280 (nbnd) bands

     total energy              =   -1651.75140089 Ry
     Harris-Foulkes estimate   =   -1651.75206491 Ry
     est. exchange err (dexx)  =       0.01220380 Ry
     - averaged Fock potential =     235.27515114 Ry
     + Fock energy (ACE)       =    -117.71495501 Ry

     scf convergence threshold =          1.2E-03 Ry

     EXX: now go back to refine exchange calculation

     total cpu time spent up to now is      178.3 secs

     per-process dynamical memory:   115.0 Mb

     Self-consistent Calculation

     iteration #  1     ecut=   100.00 Ry     beta= 0.70
     Davidson diagonalization with overlap
     ethr =  2.39E-07,  avg # of iterations =  7.0

     total cpu time spent up to now is      187.8 secs

     End of self-consistent calculation

          k = 0.0000 0.0000 0.0000 (102219 PWs)   bands (ev):

   -23.9359 -23.9064 -23.8994 -23.8700 -23.8249 -23.8185 -23.8101 -23.8074
   -22.9399 -22.9385 -22.9277 -22.9221 -20.5317 -20.5262 -20.4931 -20.4871
   -18.5146 -18.5138 -18.4988 -18.4972 -18.4585 -18.4496 -18.4488 -18.4431
   -18.1295 -18.1112 -18.1023 -18.0843 -16.7378 -16.7310 -16.7292 -16.7230
   -15.8996 -15.8894 -15.8728 -15.8611 -15.6474 -15.6468 -15.6096 -15.6034
   -15.5392 -15.5298 -15.5177 -15.4957 -15.4890 -15.4574 -15.4135 -15.3864
   -15.1815 -15.1695 -15.1607 -15.1507 -14.8124 -14.8005 -14.7936 -14.7845
   -14.0449 -14.0310 -14.0044 -13.9861 -13.8831 -13.8672 -13.8495 -13.8386
   -12.9277 -12.9164 -12.9120 -12.9012 -12.3045 -12.3044 -12.2765 -12.2761
   -11.6701 -11.6657 -11.6513 -11.6457 -11.5513 -11.5245 -11.5143 -11.4957
   -11.4838 -11.4579 -11.4427 -11.4394 -11.2330 -11.2162 -11.2089 -11.1954
   -10.4244 -10.4126 -10.3841 -10.3626 -10.1186 -10.0945 -10.0604 -10.0314
    -9.7491  -9.7474  -9.6508  -9.6290  -9.3725  -9.3664  -9.3351  -9.3150
    -9.2459  -9.2297  -9.2195  -9.1774  -9.0583  -9.0398  -8.9320  -8.9138
    -8.3212  -8.3080  -8.2907  -8.2716  -8.0725  -8.0562  -8.0343  -7.9943
    -7.9799  -7.9486  -7.9466  -7.9287  -7.6571  -7.6373  -7.5874  -7.5592
    -7.5127  -7.4971  -7.4823  -7.4697  -7.4668  -7.4248  -7.3919  -7.3491
    -7.2786  -7.2612  -7.2544  -7.2464  -7.2429  -7.2284  -7.2166  -7.2104
    -7.0930  -7.0683  -7.0346  -7.0017  -6.7996  -6.7855  -6.7313  -6.7230
    -6.4953  -6.4737  -6.4553  -6.4288  -6.3381  -6.2872  -6.2676  -6.2606
    -6.2281  -6.1607  -6.1525  -6.1210  -6.1134  -6.1078  -6.0198  -6.0134
    -5.9973  -5.9703  -5.9490  -5.9390  -5.6724  -5.6690  -5.6373  -5.6346
    -5.5737  -5.5670  -5.5035  -5.4821  -5.3753  -5.3660  -5.3620  -5.3530
    -5.1863  -5.1708  -5.1706  -5.1499  -5.1153  -5.0890  -5.0491  -5.0339
    -5.0314  -4.9896  -4.9710  -4.9129  -4.8195  -4.8063  -4.7520  -4.7480
    -4.6330  -4.6057  -4.5978  -4.5865  -4.3551  -4.3416  -4.3192  -4.2928
    -4.1904  -4.1428  -4.1409  -4.1312  -4.0972  -4.0887  -4.0862  -4.0817
    -4.0496  -4.0242  -4.0240  -3.9723  -3.9014  -3.8535  -3.8402  -3.8371
    -3.6180  -3.5942  -3.5577  -3.5238  -3.3027  -3.2810  -3.2552  -3.2411
    -3.1931  -3.1851  -3.1839  -3.1816  -3.0376  -3.0152  -2.9345  -2.8934
    -2.8160  -2.7906  -2.6571  -2.6523  -2.0968  -2.0855  -2.0535  -2.0473
    -1.9417  -1.9173  -1.9084  -1.8750  -1.2928  -1.2659  -1.1017  -1.0833
    -1.0683  -0.9944  -0.9493  -0.8438  -0.7903  -0.7618  -0.7610  -0.7502
    -0.7470  -0.7447  -0.7219  -0.7136  -0.3120  -0.2436  -0.2302  -0.1741
    -0.1460  -0.1371  -0.1299  -0.1099   0.0181   0.0317   0.1364   0.1533

     highest occupied level (ev):     0.1533

!    total energy              =   -1651.75309954 Ry
     estimated scf accuracy    <       0.00117106 Ry

     convergence has been achieved in   1 iterations

     Using ACE for calculation of exact exchange
     ACE projected onto   280 (nbndproj) and applied to   280 (nbnd) bands

     total energy              =   -1651.75381632 Ry
     Harris-Foulkes estimate   =   -1651.75482446 Ry
     est. exchange err (dexx)  =       0.00071678 Ry
     - averaged Fock potential =     235.45589112 Ry
     + Fock energy (ACE)       =    -117.74165289 Ry

     scf convergence threshold =          7.2E-05 Ry

     EXX: now go back to refine exchange calculation

     total cpu time spent up to now is      233.2 secs

     per-process dynamical memory:   115.0 Mb

     Self-consistent Calculation

     iteration #  1     ecut=   100.00 Ry     beta= 0.70
     Davidson diagonalization with overlap
     ethr =  2.39E-07,  avg # of iterations =  5.0

     total cpu time spent up to now is      240.3 secs

     total energy              =   -1651.75477191 Ry
     estimated scf accuracy    <       0.00250961 Ry

     iteration #  2     ecut=   100.00 Ry     beta= 0.70
     Davidson diagonalization with overlap
     ethr =  4.48E-07,  avg # of iterations =  2.0

     total cpu time spent up to now is      246.1 secs

     total energy              =   -1651.75437356 Ry
     estimated scf accuracy    <       0.00142905 Ry

     iteration #  3     ecut=   100.00 Ry     beta= 0.70
     Davidson diagonalization with overlap
     ethr =  2.55E-07,  avg # of iterations =  4.0

     total cpu time spent up to now is      251.1 secs

     total energy              =   -1651.75446579 Ry
     estimated scf accuracy    <       0.00039672 Ry

     iteration #  4     ecut=   100.00 Ry     beta= 0.70
     Davidson diagonalization with overlap
     ethr =  7.08E-08,  avg # of iterations =  2.0

     total cpu time spent up to now is      254.9 secs

     total energy              =   -1651.75441417 Ry
     estimated scf accuracy    <       0.00023788 Ry

     iteration #  5     ecut=   100.00 Ry     beta= 0.70
     Davidson diagonalization with overlap
     ethr =  4.25E-08,  avg # of iterations =  4.0

     total cpu time spent up to now is      259.6 secs

     total energy              =   -1651.75441687 Ry
     estimated scf accuracy    <       0.00007495 Ry

     iteration #  6     ecut=   100.00 Ry     beta= 0.70
     Davidson diagonalization with overlap
     ethr =  1.34E-08,  avg # of iterations =  3.0

     total cpu time spent up to now is      263.2 secs

     End of self-consistent calculation

          k = 0.0000 0.0000 0.0000 (102219 PWs)   bands (ev):

   -23.9951 -23.9756 -23.9586 -23.9391 -23.8522 -23.8503 -23.8489 -23.8467
   -22.9380 -22.9359 -22.9274 -22.9266 -20.4712 -20.4656 -20.4522 -20.4466
   -18.5193 -18.5157 -18.5052 -18.5012 -18.4536 -18.4465 -18.4367 -18.4320
   -18.0961 -18.0772 -18.0770 -18.0584 -16.7412 -16.7362 -16.7326 -16.7277
   -15.8816 -15.8715 -15.8600 -15.8484 -15.6716 -15.6646 -15.6404 -15.6338
   -15.5525 -15.5374 -15.5329 -15.5135 -15.4537 -15.4281 -15.3629 -15.3416
   -15.1765 -15.1615 -15.1552 -15.1429 -14.8046 -14.7927 -14.7857 -14.7766
   -14.0719 -14.0585 -14.0344 -14.0162 -13.9118 -13.8969 -13.8768 -13.8674
   -12.9122 -12.9026 -12.9013 -12.8922 -12.2942 -12.2930 -12.2692 -12.2681
   -11.6437 -11.6402 -11.6326 -11.6277 -11.5550 -11.5316 -11.5146 -11.4938
   -11.4818 -11.4524 -11.4495 -11.4387 -11.2175 -11.2052 -11.1970 -11.1865
   -10.4135 -10.3977 -10.3785 -10.3541 -10.1143 -10.0946 -10.0581 -10.0312
    -9.7532  -9.7524  -9.6503  -9.6255  -9.3745  -9.3671  -9.3304  -9.3125
    -9.2425  -9.2303  -9.2194  -9.1791  -9.0413  -9.0305  -8.9125  -8.9014
    -8.3235  -8.3122  -8.2913  -8.2731  -8.0932  -8.0794  -8.0459  -8.0062
    -7.9928  -7.9592  -7.9585  -7.9434  -7.6726  -7.6580  -7.6039  -7.5758
    -7.5412  -7.5295  -7.5095  -7.4982  -7.4904  -7.4511  -7.4152  -7.3760
    -7.2858  -7.2757  -7.2727  -7.2647  -7.2643  -7.2359  -7.2340  -7.2085
    -7.0472  -7.0290  -6.9906  -6.9669  -6.8044  -6.7927  -6.7297  -6.7241
    -6.4909  -6.4693  -6.4511  -6.4267  -6.3232  -6.2917  -6.2662  -6.2451
    -6.2247  -6.1517  -6.1228  -6.0991  -6.0987  -6.0867  -6.0248  -6.0207
    -5.9981  -5.9721  -5.9402  -5.9322  -5.6887  -5.6846  -5.6498  -5.6398
    -5.5888  -5.5814  -5.5204  -5.5001  -5.3622  -5.3534  -5.3528  -5.3453
    -5.2040  -5.1934  -5.1875  -5.1714  -5.1015  -5.0936  -5.0418  -5.0408
    -5.0389  -4.9876  -4.9627  -4.9071  -4.8050  -4.7971  -4.7355  -4.7294
    -4.6085  -4.5819  -4.5767  -4.5677  -4.3568  -4.3478  -4.3253  -4.2961
    -4.1914  -4.1401  -4.1333  -4.1247  -4.0969  -4.0933  -4.0865  -4.0842
    -4.0513  -4.0270  -4.0191  -3.9699  -3.8959  -3.8495  -3.8454  -3.8414
    -3.5927  -3.5684  -3.5338  -3.4953  -3.3162  -3.2940  -3.2722  -3.2600
    -3.2150  -3.2068  -3.2048  -3.2026  -3.0693  -3.0546  -2.9717  -2.9371
    -2.8272  -2.8048  -2.6718  -2.6671  -2.0986  -2.0887  -2.0549  -2.0481
    -1.9200  -1.8946  -1.8835  -1.8513  -1.2350  -1.2184  -1.0545  -1.0531
    -1.0242  -0.9688  -0.9181  -0.8184  -0.8002  -0.7577  -0.7568  -0.7545
    -0.7468  -0.7443  -0.7265  -0.7206  -0.3081  -0.2437  -0.2313  -0.1874
    -0.1584  -0.1435  -0.1314  -0.1210   0.0292   0.0441   0.1384   0.1578

     highest occupied level (ev):     0.1578

!    total energy              =   -1651.75439268 Ry
     estimated scf accuracy    <       0.00003670 Ry

     convergence has been achieved in   6 iterations

     Using ACE for calculation of exact exchange
     ACE projected onto   280 (nbndproj) and applied to   280 (nbnd) bands

     total energy              =   -1651.75449895 Ry
     Harris-Foulkes estimate   =   -1651.75453309 Ry
     est. exchange err (dexx)  =       0.00010627 Ry
     - averaged Fock potential =     235.49155422 Ry
     + Fock energy (ACE)       =    -117.75000760 Ry

     scf convergence threshold =          1.1E-05 Ry

     EXX: now go back to refine exchange calculation

     total cpu time spent up to now is      313.4 secs

     per-process dynamical memory:   117.1 Mb

     Self-consistent Calculation

     iteration #  1     ecut=   100.00 Ry     beta= 0.70
     Davidson diagonalization with overlap
     ethr =  1.34E-08,  avg # of iterations =  6.0

     total cpu time spent up to now is      320.6 secs

     total energy              =   -1651.75454580 Ry
     estimated scf accuracy    <       0.00010718 Ry

     iteration #  2     ecut=   100.00 Ry     beta= 0.70
     Davidson diagonalization with overlap
     ethr =  1.91E-08,  avg # of iterations =  2.0

     total cpu time spent up to now is      324.0 secs

     total energy              =   -1651.75453722 Ry
     estimated scf accuracy    <       0.00004665 Ry

     iteration #  3     ecut=   100.00 Ry     beta= 0.70
     Davidson diagonalization with overlap
     ethr =  8.33E-09,  avg # of iterations =  3.0

     total cpu time spent up to now is      328.0 secs

     total energy              =   -1651.75453856 Ry
     estimated scf accuracy    <       0.00001410 Ry

     iteration #  4     ecut=   100.00 Ry     beta= 0.70
     Davidson diagonalization with overlap
     ethr =  2.52E-09,  avg # of iterations =  3.0

     total cpu time spent up to now is      331.5 secs

     End of self-consistent calculation

          k = 0.0000 0.0000 0.0000 (102219 PWs)   bands (ev):

   -23.9757 -23.9672 -23.9392 -23.9308 -23.8418 -23.8402 -23.8400 -23.8383
   -22.9504 -22.9495 -22.9451 -22.9445 -20.4736 -20.4682 -20.4646 -20.4592
   -18.5136 -18.5112 -18.5018 -18.4978 -18.4537 -18.4465 -18.4415 -18.4367
   -18.1014 -18.0868 -18.0823 -18.0683 -16.7407 -16.7388 -16.7322 -16.7304
   -15.8848 -15.8749 -15.8664 -15.8550 -15.6618 -15.6557 -15.6321 -15.6255
   -15.5469 -15.5319 -15.5316 -15.5088 -15.4621 -15.4393 -15.3723 -15.3569
   -15.1779 -15.1646 -15.1564 -15.1462 -14.8069 -14.7948 -14.7882 -14.7790
   -14.0619 -14.0490 -14.0244 -14.0062 -13.9024 -13.8869 -13.8685 -13.8591
   -12.9160 -12.9101 -12.9050 -12.8999 -12.2991 -12.2980 -12.2741 -12.2731
   -11.6461 -11.6424 -11.6404 -11.6357 -11.5495 -11.5285 -11.5089 -11.4955
   -11.4815 -11.4510 -11.4475 -11.4425 -11.2216 -11.2098 -11.2001 -11.1911
   -10.4160 -10.4019 -10.3798 -10.3565 -10.1141 -10.0933 -10.0580 -10.0305
    -9.7509  -9.7504  -9.6504  -9.6261  -9.3740  -9.3676  -9.3332  -9.3146
    -9.2417  -9.2320  -9.2192  -9.1790  -9.0447  -9.0369  -8.9161  -8.9082
    -8.3232  -8.3116  -8.2922  -8.2741  -8.0831  -8.0751  -8.0421  -8.0029
    -7.9882  -7.9559  -7.9552  -7.9407  -7.6651  -7.6542  -7.5980  -7.5713
    -7.5311  -7.5208  -7.4981  -7.4917  -7.4852  -7.4445  -7.4083  -7.3684
    -7.2744  -7.2689  -7.2658  -7.2616  -7.2606  -7.2406  -7.2314  -7.2115
    -7.0564  -7.0439  -7.0002  -6.9790  -6.8036  -6.7920  -6.7298  -6.7246
    -6.4908  -6.4700  -6.4504  -6.4253  -6.3267  -6.2936  -6.2680  -6.2454
    -6.2309  -6.1564  -6.1306  -6.1037  -6.1007  -6.0958  -6.0227  -6.0211
    -5.9992  -5.9735  -5.9425  -5.9387  -5.6841  -5.6817  -5.6467  -5.6379
    -5.5852  -5.5802  -5.5145  -5.4964  -5.3715  -5.3642  -5.3622  -5.3578
    -5.1968  -5.1912  -5.1820  -5.1677  -5.1041  -5.0939  -5.0427  -5.0419
    -5.0391  -4.9893  -4.9659  -4.9077  -4.8089  -4.7999  -4.7405  -4.7358
    -4.6165  -4.5874  -4.5853  -4.5772  -4.3529  -4.3484  -4.3233  -4.2956
    -4.1903  -4.1392  -4.1334  -4.1266  -4.0961  -4.0895  -4.0863  -4.0856
    -4.0514  -4.0270  -4.0206  -3.9703  -3.8977  -3.8511  -3.8448  -3.8414
    -3.5990  -3.5777  -3.5399  -3.5049  -3.3129  -3.2916  -3.2668  -3.2570
    -3.2086  -3.2003  -3.1991  -3.1974  -3.0573  -3.0495  -2.9604  -2.9280
    -2.8238  -2.8012  -2.6669  -2.6630  -2.0942  -2.0874  -2.0500  -2.0474
    -1.9244  -1.8992  -1.8903  -1.8579  -1.2439  -1.2354  -1.0610  -1.0565
    -1.0367  -0.9732  -0.9239  -0.8226  -0.8004  -0.7671  -0.7657  -0.7603
    -0.7600  -0.7564  -0.7292  -0.7245  -0.3093  -0.2445  -0.2301  -0.1839
    -0.1511  -0.1437  -0.1316  -0.1197   0.0253   0.0397   0.1364   0.1548

     highest occupied level (ev):     0.1548

!    total energy              =   -1651.75453472 Ry
     estimated scf accuracy    <       0.00000558 Ry

     convergence has been achieved in   4 iterations

     Using ACE for calculation of exact exchange
     ACE projected onto   280 (nbndproj) and applied to   280 (nbnd) bands

     total energy              =   -1651.75454662 Ry
     Harris-Foulkes estimate   =   -1651.75455191 Ry
     est. exchange err (dexx)  =       0.00001190 Ry
     - averaged Fock potential =     235.50260293 Ry
     + Fock energy (ACE)       =    -117.75260723 Ry

     scf convergence threshold =          1.2E-06 Ry

     EXX: now go back to refine exchange calculation

     total cpu time spent up to now is      381.9 secs

     per-process dynamical memory:   117.1 Mb

     Self-consistent Calculation

     iteration #  1     ecut=   100.00 Ry     beta= 0.70
     Davidson diagonalization with overlap
     ethr =  2.52E-09,  avg # of iterations =  6.0

     total cpu time spent up to now is      388.0 secs

     total energy              =   -1651.75455333 Ry
     estimated scf accuracy    <       0.00000947 Ry

     iteration #  2     ecut=   100.00 Ry     beta= 0.70
     Davidson diagonalization with overlap
     ethr =  1.69E-09,  avg # of iterations =  1.0

     total cpu time spent up to now is      390.0 secs

     total energy              =   -1651.75455185 Ry
     estimated scf accuracy    <       0.00000601 Ry

     iteration #  3     ecut=   100.00 Ry     beta= 0.70
     Davidson diagonalization with overlap
     ethr =  1.07E-09,  avg # of iterations =  3.0

     total cpu time spent up to now is      393.9 secs

     total energy              =   -1651.75455190 Ry
     estimated scf accuracy    <       0.00000208 Ry

     iteration #  4     ecut=   100.00 Ry     beta= 0.70
     Davidson diagonalization with overlap
     ethr =  3.71E-10,  avg # of iterations =  2.0

     total cpu time spent up to now is      397.0 secs

     End of self-consistent calculation

          k = 0.0000 0.0000 0.0000 (102219 PWs)   bands (ev):

   -23.9737 -23.9686 -23.9373 -23.9322 -23.8383 -23.8372 -23.8365 -23.8354
   -22.9455 -22.9447 -22.9421 -22.9415 -20.4724 -20.4670 -20.4663 -20.4608
   -18.5153 -18.5127 -18.5043 -18.5000 -18.4526 -18.4458 -18.4407 -18.4362
   -18.0997 -18.0862 -18.0807 -18.0677 -16.7412 -16.7400 -16.7327 -16.7316
   -15.8831 -15.8731 -15.8655 -15.8540 -15.6629 -15.6569 -15.6341 -15.6278
   -15.5457 -15.5306 -15.5299 -15.5070 -15.4612 -15.4388 -15.3713 -15.3569
   -15.1778 -15.1647 -15.1563 -15.1462 -14.8072 -14.7953 -14.7884 -14.7793
   -14.0620 -14.0487 -14.0255 -14.0069 -13.9024 -13.8872 -13.8676 -13.8585
   -12.9149 -12.9101 -12.9038 -12.8999 -12.2985 -12.2973 -12.2736 -12.2726
   -11.6447 -11.6411 -11.6407 -11.6363 -11.5518 -11.5309 -11.5108 -11.4967
   -11.4808 -11.4496 -11.4478 -11.4418 -11.2209 -11.2097 -11.1995 -11.1908
   -10.4164 -10.4023 -10.3803 -10.3568 -10.1126 -10.0921 -10.0566 -10.0292
    -9.7515  -9.7513  -9.6507  -9.6266  -9.3750  -9.3688  -9.3335  -9.3154
    -9.2400  -9.2310  -9.2174  -9.1780  -9.0434  -9.0364  -8.9150  -8.9079
    -8.3236  -8.3121  -8.2922  -8.2741  -8.0841  -8.0768  -8.0403  -8.0013
    -7.9870  -7.9558  -7.9544  -7.9416  -7.6662  -7.6561  -7.5984  -7.5719
    -7.5303  -7.5203  -7.4977  -7.4923  -7.4833  -7.4428  -7.4064  -7.3664
    -7.2736  -7.2679  -7.2648  -7.2614  -7.2597  -7.2399  -7.2303  -7.2108
    -7.0550  -7.0439  -6.9991  -6.9788  -6.8031  -6.7913  -6.7299  -6.7243
    -6.4916  -6.4713  -6.4517  -6.4266  -6.3263  -6.2920  -6.2667  -6.2454
    -6.2308  -6.1559  -6.1294  -6.1031  -6.1003  -6.0956  -6.0224  -6.0199
    -5.9979  -5.9729  -5.9429  -5.9383  -5.6821  -5.6807  -5.6456  -5.6380
    -5.5849  -5.5811  -5.5156  -5.4978  -5.3692  -5.3628  -5.3595  -5.3566
    -5.1974  -5.1930  -5.1830  -5.1693  -5.1025  -5.0938  -5.0421  -5.0417
    -5.0397  -4.9894  -4.9645  -4.9060  -4.8080  -4.7987  -4.7394  -4.7347
    -4.6158  -4.5864  -4.5847  -4.5770  -4.3504  -4.3477  -4.3219  -4.2943
    -4.1911  -4.1401  -4.1339  -4.1260  -4.0956  -4.0915  -4.0870  -4.0856
    -4.0526  -4.0278  -4.0205  -3.9703  -3.8972  -3.8505  -3.8448  -3.8416
    -3.5982  -3.5774  -3.5388  -3.5042  -3.3130  -3.2918  -3.2671  -3.2577
    -3.2064  -3.1983  -3.1968  -3.1961  -3.0575  -3.0509  -2.9607  -2.9289
    -2.8219  -2.7996  -2.6648  -2.6610  -2.0957  -2.0891  -2.0510  -2.0492
    -1.9237  -1.8980  -1.8898  -1.8572  -1.2419  -1.2361  -1.0603  -1.0564
    -1.0366  -0.9732  -0.9234  -0.8226  -0.8007  -0.7634  -0.7631  -0.7581
    -0.7577  -0.7572  -0.7288  -0.7251  -0.3094  -0.2440  -0.2311  -0.1849
    -0.1523  -0.1448  -0.1321  -0.1207   0.0256   0.0398   0.1373   0.1555

     highest occupied level (ev):     0.1555

!    total energy              =   -1651.75455097 Ry
     estimated scf accuracy    <       0.00000111 Ry

     convergence has been achieved in   4 iterations

     Using ACE for calculation of exact exchange
     ACE projected onto   280 (nbndproj) and applied to   280 (nbnd) bands

     total energy              =   -1651.75455277 Ry
     Harris-Foulkes estimate   =   -1651.75455384 Ry
     est. exchange err (dexx)  =       0.00000180 Ry
     - averaged Fock potential =     235.50556035 Ry
     + Fock energy (ACE)       =    -117.75295491 Ry

     scf convergence threshold =          1.8E-07 Ry

     EXX: now go back to refine exchange calculation

     total cpu time spent up to now is      450.5 secs

     per-process dynamical memory:   117.3 Mb

     Self-consistent Calculation

     iteration #  1     ecut=   100.00 Ry     beta= 0.70
     Davidson diagonalization with overlap
     ethr =  3.71E-10,  avg # of iterations =  6.0

     total cpu time spent up to now is      456.9 secs

     total energy              =   -1651.75455399 Ry
     estimated scf accuracy    <       0.00000161 Ry

     iteration #  2     ecut=   100.00 Ry     beta= 0.70
     Davidson diagonalization with overlap
     ethr =  2.87E-10,  avg # of iterations =  1.0

     total cpu time spent up to now is      459.6 secs

     total energy              =   -1651.75455380 Ry
     estimated scf accuracy    <       0.00000110 Ry

     iteration #  3     ecut=   100.00 Ry     beta= 0.70
     Davidson diagonalization with overlap
     ethr =  1.96E-10,  avg # of iterations =  2.0

     total cpu time spent up to now is      462.9 secs

     total energy              =   -1651.75455374 Ry
     estimated scf accuracy    <       0.00000054 Ry

     iteration #  4     ecut=   100.00 Ry     beta= 0.70
     Davidson diagonalization with overlap
     ethr =  9.64E-11,  avg # of iterations =  2.0

     total cpu time spent up to now is      466.2 secs

     total energy              =   -1651.75455367 Ry
     estimated scf accuracy    <       0.00000031 Ry

     iteration #  5     ecut=   100.00 Ry     beta= 0.70
     Davidson diagonalization with overlap
     ethr =  5.56E-11,  avg # of iterations =  4.0

     total cpu time spent up to now is      470.3 secs

     End of self-consistent calculation

          k = 0.0000 0.0000 0.0000 (102219 PWs)   bands (ev):

   -23.9710 -23.9690 -23.9345 -23.9326 -23.8386 -23.8380 -23.8367 -23.8362
   -22.9458 -22.9454 -22.9445 -22.9441 -20.4707 -20.4686 -20.4653 -20.4632
   -18.5144 -18.5119 -18.5034 -18.4992 -18.4527 -18.4458 -18.4413 -18.4367
   -18.0998 -18.0870 -18.0808 -18.0685 -16.7406 -16.7398 -16.7321 -16.7315
   -15.8834 -15.8735 -15.8662 -15.8547 -15.6621 -15.6560 -15.6332 -15.6268
   -15.5459 -15.5309 -15.5305 -15.5075 -15.4612 -15.4393 -15.3711 -15.3576
   -15.1778 -15.1648 -15.1562 -15.1463 -14.8071 -14.7951 -14.7883 -14.7791
   -14.0617 -14.0485 -14.0249 -14.0064 -13.9022 -13.8868 -13.8678 -13.8586
   -12.9148 -12.9108 -12.9035 -12.9008 -12.2985 -12.2974 -12.2737 -12.2727
   -11.6438 -11.6423 -11.6402 -11.6374 -11.5508 -11.5302 -11.5098 -11.4966
   -11.4810 -11.4496 -11.4479 -11.4427 -11.2210 -11.2098 -11.1994 -11.1910
   -10.4161 -10.4020 -10.3799 -10.3566 -10.1130 -10.0924 -10.0571 -10.0297
    -9.7510  -9.7508  -9.6504  -9.6262  -9.3746  -9.3683  -9.3334  -9.3151
    -9.2402  -9.2317  -9.2179  -9.1783  -9.0434  -9.0370  -8.9150  -8.9085
    -8.3234  -8.3118  -8.2921  -8.2740  -8.0829  -8.0763  -8.0408  -8.0019
    -7.9873  -7.9552  -7.9549  -7.9411  -7.6654  -7.6555  -7.5980  -7.5716
    -7.5300  -7.5201  -7.4970  -7.4922  -7.4838  -7.4432  -7.4069  -7.3669
    -7.2732  -7.2680  -7.2646  -7.2611  -7.2598  -7.2403  -7.2305  -7.2111
    -7.0548  -7.0447  -6.9992  -6.9792  -6.8031  -6.7915  -6.7297  -6.7244
    -6.4914  -6.4709  -6.4513  -6.4263  -6.3263  -6.2924  -6.2670  -6.2454
    -6.2308  -6.1559  -6.1297  -6.1032  -6.1004  -6.0959  -6.0224  -6.0202
    -5.9982  -5.9731  -5.9426  -5.9387  -5.6822  -5.6814  -5.6459  -5.6380
    -5.5848  -5.5808  -5.5149  -5.4973  -5.3696  -5.3636  -5.3594  -5.3580
    -5.1965  -5.1927  -5.1823  -5.1687  -5.1030  -5.0937  -5.0420  -5.0419
    -5.0393  -4.9893  -4.9649  -4.9066  -4.8082  -4.7990  -4.7398  -4.7352
    -4.6161  -4.5865  -4.5852  -4.5776  -4.3502  -4.3490  -4.3223  -4.2948
    -4.1907  -4.1396  -4.1336  -4.1263  -4.0957  -4.0907  -4.0868  -4.0860
    -4.0522  -4.0275  -4.0205  -3.9702  -3.8973  -3.8506  -3.8447  -3.8414
    -3.5982  -3.5778  -3.5390  -3.5047  -3.3126  -3.2915  -3.2665  -3.2573
    -3.2068  -3.1986  -3.1972  -3.1965  -3.0560  -3.0506  -2.9597  -2.9281
    -2.8224  -2.8000  -2.6653  -2.6616  -2.0949  -2.0887  -2.0501  -2.0490
    -1.9239  -1.8984  -1.8903  -1.8576  -1.2409  -1.2376  -1.0604  -1.0568
    -1.0371  -0.9737  -0.9237  -0.8230  -0.8005  -0.7643  -0.7637  -0.7592
    -0.7592  -0.7573  -0.7289  -0.7250  -0.3096  -0.2444  -0.2309  -0.1846
    -0.1515  -0.1448  -0.1322  -0.1206   0.0251   0.0393   0.1366   0.1548

     highest occupied level (ev):     0.1548

!    total energy              =   -1651.75455358 Ry
     estimated scf accuracy    <       0.00000013 Ry

     convergence has been achieved in   5 iterations

     Using ACE for calculation of exact exchange
     ACE projected onto   280 (nbndproj) and applied to   280 (nbnd) bands

     total energy              =   -1651.75455387 Ry
     Harris-Foulkes estimate   =   -1651.75455399 Ry
     est. exchange err (dexx)  =       0.00000028 Ry
     - averaged Fock potential =     235.50614417 Ry
     + Fock energy (ACE)       =    -117.75318954 Ry

     scf convergence threshold =          1.0E-07 Ry

     EXX: now go back to refine exchange calculation

     total cpu time spent up to now is      521.2 secs

     per-process dynamical memory:   122.3 Mb

     Self-consistent Calculation

     iteration #  1     ecut=   100.00 Ry     beta= 0.70
     Davidson diagonalization with overlap
     ethr =  5.56E-11,  avg # of iterations =  6.0

     total cpu time spent up to now is      527.7 secs

     total energy              =   -1651.75455402 Ry
     estimated scf accuracy    <       0.00000014 Ry

     iteration #  2     ecut=   100.00 Ry     beta= 0.70
     Davidson diagonalization with overlap
     ethr =  2.52E-11,  avg # of iterations =  2.0

     total cpu time spent up to now is      530.5 secs

     End of self-consistent calculation

          k = 0.0000 0.0000 0.0000 (102219 PWs)   bands (ev):

   -23.9708 -23.9701 -23.9344 -23.9336 -23.8386 -23.8382 -23.8367 -23.8364
   -22.9457 -22.9454 -22.9449 -22.9446 -20.4700 -20.4691 -20.4646 -20.4636
   -18.5144 -18.5119 -18.5035 -18.4992 -18.4526 -18.4458 -18.4413 -18.4367
   -18.0997 -18.0870 -18.0807 -18.0685 -16.7407 -16.7400 -16.7321 -16.7317
   -15.8833 -15.8734 -15.8661 -15.8546 -15.6622 -15.6561 -15.6333 -15.6269
   -15.5458 -15.5308 -15.5304 -15.5074 -15.4613 -15.4394 -15.3712 -15.3577
   -15.1778 -15.1648 -15.1562 -15.1463 -14.8071 -14.7951 -14.7883 -14.7792
   -14.0617 -14.0485 -14.0249 -14.0064 -13.9022 -13.8869 -13.8677 -13.8586
   -12.9147 -12.9108 -12.9034 -12.9008 -12.2986 -12.2975 -12.2738 -12.2728
   -11.6434 -11.6426 -11.6399 -11.6375 -11.5508 -11.5303 -11.5098 -11.4965
   -11.4809 -11.4494 -11.4478 -11.4426 -11.2210 -11.2099 -11.1995 -11.1911
   -10.4162 -10.4022 -10.3800 -10.3567 -10.1129 -10.0924 -10.0571 -10.0296
    -9.7511  -9.7509  -9.6505  -9.6263  -9.3747  -9.3684  -9.3334  -9.3152
    -9.2401  -9.2316  -9.2178  -9.1783  -9.0434  -9.0370  -8.9150  -8.9085
    -8.3235  -8.3119  -8.2922  -8.2741  -8.0830  -8.0765  -8.0406  -8.0018
    -7.9872  -7.9554  -7.9548  -7.9412  -7.6655  -7.6557  -7.5981  -7.5716
    -7.5301  -7.5202  -7.4971  -7.4924  -7.4838  -7.4432  -7.4069  -7.3669
    -7.2734  -7.2680  -7.2648  -7.2613  -7.2599  -7.2402  -7.2306  -7.2111
    -7.0548  -7.0448  -6.9992  -6.9793  -6.8031  -6.7915  -6.7297  -6.7244
    -6.4913  -6.4710  -6.4513  -6.4262  -6.3264  -6.2924  -6.2671  -6.2454
    -6.2308  -6.1560  -6.1298  -6.1033  -6.1004  -6.0959  -6.0224  -6.0202
    -5.9982  -5.9731  -5.9426  -5.9388  -5.6820  -5.6815  -5.6459  -5.6379
    -5.5849  -5.5809  -5.5150  -5.4974  -5.3697  -5.3638  -5.3594  -5.3582
    -5.1966  -5.1929  -5.1824  -5.1688  -5.1029  -5.0938  -5.0420  -5.0419
    -5.0394  -4.9894  -4.9649  -4.9065  -4.8082  -4.7990  -4.7398  -4.7352
    -4.6161  -4.5865  -4.5852  -4.5777  -4.3498  -4.3492  -4.3222  -4.2947
    -4.1907  -4.1397  -4.1336  -4.1262  -4.0956  -4.0907  -4.0868  -4.0859
    -4.0523  -4.0275  -4.0205  -3.9702  -3.8973  -3.8507  -3.8448  -3.8414
    -3.5983  -3.5778  -3.5390  -3.5047  -3.3128  -3.2916  -3.2667  -3.2574
    -3.2068  -3.1986  -3.1971  -3.1967  -3.0562  -3.0509  -2.9599  -2.9283
    -2.8224  -2.7999  -2.6652  -2.6616  -2.0949  -2.0887  -2.0501  -2.0491
    -1.9238  -1.8983  -1.8902  -1.8576  -1.2407  -1.2379  -1.0603  -1.0567
    -1.0371  -0.9737  -0.9237  -0.8229  -0.8007  -0.7644  -0.7638  -0.7594
    -0.7594  -0.7574  -0.7290  -0.7252  -0.3097  -0.2445  -0.2310  -0.1846
    -0.1515  -0.1450  -0.1323  -0.1207   0.0251   0.0393   0.1366   0.1548

     highest occupied level (ev):     0.1548

!    total energy              =   -1651.75455394 Ry
     estimated scf accuracy    <       0.00000008 Ry

     convergence has been achieved in   2 iterations

     Using ACE for calculation of exact exchange
     ACE projected onto   280 (nbndproj) and applied to   280 (nbnd) bands

!!   total energy              =   -1651.75455401 Ry
     Harris-Foulkes estimate   =   -1651.75455408 Ry
     est. exchange err (dexx)  =       0.00000006 Ry
     - averaged Fock potential =     235.50648549 Ry
     + Fock energy (ACE)       =    -117.75329602 Ry

     EXX self-consistency reached

     Forces acting on atoms (cartesian axes, Ry/au):

     atom    1 type  1   force =    -0.01373304   -0.02052890   -0.10230182
     atom    2 type  1   force =    -0.01158232    0.00336187   -0.04661732
     atom    3 type  1   force =    -0.00690228   -0.03734137   -0.02373895
     atom    4 type  2   force =     0.06247270    0.00472398    0.04392324
     atom    5 type  3   force =     0.11384019   -0.15519501   -0.12391186
     atom    6 type  4   force =    -0.15377791    0.22738019    0.17024111
     atom    7 type  3   force =    -0.03517573   -0.03258419   -0.24097552
     atom    8 type  4   force =     0.05601252    0.03006955    0.31826024
     atom    9 type  3   force =    -0.15060379    0.14418915   -0.09607429
     atom   10 type  4   force =     0.20356223   -0.19177507    0.15470917
     atom   11 type  3   force =     0.02228591   -0.04774482   -0.04111610
     atom   12 type  3   force =     0.02043447    0.03142777    0.23107902
     atom   13 type  4   force =    -0.05013113   -0.03772916   -0.31707044
     atom   14 type  3   force =    -0.02250276    0.02177974   -0.01757919
     atom   15 type  3   force =     0.08060761   -0.01065947    0.22486650
     atom   16 type  4   force =    -0.04367822   -0.07979395   -0.31735602
     atom   17 type  3   force =    -0.05879803    0.00099293   -0.19822606
     atom   18 type  4   force =     0.03595932    0.09037205    0.30840820
     atom   19 type  3   force =     0.00222422    0.00634993    0.03676734
     atom   20 type  3   force =     0.00778061   -0.01585177   -0.01473483
     atom   21 type  3   force =     0.01868064    0.06555312    0.23646945
     atom   22 type  4   force =    -0.02171732   -0.07520658   -0.31336723
     atom   23 type  3   force =     0.14682763   -0.14496308    0.14088938
     atom   24 type  4   force =    -0.18952092    0.17169740   -0.19959632
     atom   25 type  3   force =    -0.02442097    0.05223992    0.01861591
     atom   26 type  3   force =    -0.01164043   -0.07445631   -0.22385695
     atom   27 type  4   force =     0.02929520    0.08120442    0.31138068
     atom   28 type  3   force =    -0.14507862    0.12517749   -0.14570720
     atom   29 type  4   force =     0.19292524   -0.16360198    0.20081770
     atom   30 type  3   force =     0.09647028    0.17985238    0.18506531
     atom   31 type  4   force =    -0.15150887   -0.20314693   -0.22500158
     atom   32 type  3   force =     0.01285597   -0.03431992   -0.01253381
     atom   33 type  3   force =     0.07227540    0.16365751    0.16684885
     atom   34 type  4   force =    -0.10775741   -0.21214854   -0.21927760
     atom   35 type  3   force =    -0.03603024   -0.01191674   -0.03229984
     atom   36 type  3   force =     0.12664370   -0.17617717   -0.06914832
     atom   37 type  4   force =    -0.18009475    0.24857596    0.09250553
     atom   38 type  3   force =    -0.07164243   -0.16557424   -0.17223646
     atom   39 type  4   force =     0.10234998    0.21194735    0.22359089
     atom   40 type  3   force =    -0.21437983    0.03726856   -0.08808123
     atom   41 type  4   force =     0.28949359   -0.03644837    0.12927696
     atom   42 type  3   force =    -0.12793235    0.14066801   -0.06629363
     atom   43 type  4   force =     0.07677894   -0.13938780   -0.17861561
     atom   44 type  4   force =    -0.11758155   -0.13587311    0.17737010
     atom   45 type  4   force =     0.19009682    0.12175000    0.10081453
     atom   46 type  3   force =     0.10763141   -0.16455402   -0.00440185
     atom   47 type  4   force =    -0.19048590   -0.02053498   -0.14503304
     atom   48 type  4   force =     0.14157222    0.19645021   -0.06995917
     atom   49 type  4   force =    -0.07475440    0.02917986    0.23441522
     atom   50 type  1   force =     0.01373304   -0.02052890    0.10230182
     atom   51 type  1   force =     0.01158232    0.00336187    0.04661732
     atom   52 type  1   force =     0.00690228   -0.03734137    0.02373895
     atom   53 type  2   force =    -0.06247270    0.00472398   -0.04392324
     atom   54 type  3   force =    -0.11384019   -0.15519501    0.12391186
     atom   55 type  4   force =     0.15377791    0.22738019   -0.17024111
     atom   56 type  3   force =     0.03517573   -0.03258419    0.24097552
     atom   57 type  4   force =    -0.05601252    0.03006955   -0.31826024
     atom   58 type  3   force =     0.15060379    0.14418915    0.09607429
     atom   59 type  4   force =    -0.20356223   -0.19177507   -0.15470917
     atom   60 type  3   force =    -0.02228591   -0.04774482    0.04111610
     atom   61 type  3   force =    -0.02043447    0.03142777   -0.23107902
     atom   62 type  4   force =     0.05013113   -0.03772916    0.31707044
     atom   63 type  3   force =     0.02250276    0.02177974    0.01757919
     atom   64 type  3   force =    -0.08060761   -0.01065947   -0.22486650
     atom   65 type  4   force =     0.04367822   -0.07979395    0.31735602
     atom   66 type  3   force =     0.05879803    0.00099293    0.19822606
     atom   67 type  4   force =    -0.03595932    0.09037205   -0.30840820
     atom   68 type  3   force =    -0.00222422    0.00634993   -0.03676734
     atom   69 type  3   force =    -0.00778061   -0.01585177    0.01473483
     atom   70 type  3   force =    -0.01868064    0.06555312   -0.23646945
     atom   71 type  4   force =     0.02171732   -0.07520658    0.31336723
     atom   72 type  3   force =    -0.14682763   -0.14496308   -0.14088938
     atom   73 type  4   force =     0.18952092    0.17169740    0.19959632
     atom   74 type  3   force =     0.02442097    0.05223992   -0.01861591
     atom   75 type  3   force =     0.01164043   -0.07445631    0.22385695
     atom   76 type  4   force =    -0.02929520    0.08120442   -0.31138068
     atom   77 type  3   force =     0.14507862    0.12517749    0.14570720
     atom   78 type  4   force =    -0.19292524   -0.16360198   -0.20081770
     atom   79 type  3   force =    -0.09647028    0.17985238   -0.18506531
     atom   80 type  4   force =     0.15150887   -0.20314693    0.22500158
     atom   81 type  3   force =    -0.01285597   -0.03431992    0.01253381
     atom   82 type  3   force =    -0.07227540    0.16365751   -0.16684885
     atom   83 type  4   force =     0.10775741   -0.21214854    0.21927760
     atom   84 type  3   force =     0.03603024   -0.01191674    0.03229984
     atom   85 type  3   force =    -0.12664370   -0.17617717    0.06914832
     atom   86 type  4   force =     0.18009475    0.24857596   -0.09250553
     atom   87 type  3   force =     0.07164243   -0.16557424    0.17223646
     atom   88 type  4   force =    -0.10234998    0.21194735   -0.22359089
     atom   89 type  3   force =     0.21437983    0.03726856    0.08808123
     atom   90 type  4   force =    -0.28949359   -0.03644837   -0.12927696
     atom   91 type  3   force =     0.12793235    0.14066801    0.06629363
     atom   92 type  4   force =    -0.07677894   -0.13938780    0.17861561
     atom   93 type  4   force =     0.11758155   -0.13587311   -0.17737010
     atom   94 type  4   force =    -0.19009682    0.12175000   -0.10081453
     atom   95 type  3   force =    -0.10763141   -0.16455402    0.00440185
     atom   96 type  4   force =     0.19048590   -0.02053498    0.14503304
     atom   97 type  4   force =    -0.14157222    0.19645021    0.06995917
     atom   98 type  4   force =     0.07475440    0.02917986   -0.23441522
     atom   99 type  1   force =     0.01373304    0.02052890    0.10230182
     atom  100 type  1   force =     0.01158232   -0.00336187    0.04661732
     atom  101 type  1   force =     0.00690228    0.03734137    0.02373895
     atom  102 type  2   force =    -0.06247270   -0.00472398   -0.04392324
     atom  103 type  3   force =    -0.11384019    0.15519501    0.12391186
     atom  104 type  4   force =     0.15377791   -0.22738019   -0.17024111
     atom  105 type  3   force =     0.03517573    0.03258419    0.24097552
     atom  106 type  4   force =    -0.05601252   -0.03006955   -0.31826024
     atom  107 type  3   force =     0.15060379   -0.14418915    0.09607429
     atom  108 type  4   force =    -0.20356223    0.19177507   -0.15470917
     atom  109 type  3   force =    -0.02228591    0.04774482    0.04111610
     atom  110 type  3   force =    -0.02043447   -0.03142777   -0.23107902
     atom  111 type  4   force =     0.05013113    0.03772916    0.31707044
     atom  112 type  3   force =     0.02250276   -0.02177974    0.01757919
     atom  113 type  3   force =    -0.08060761    0.01065947   -0.22486650
     atom  114 type  4   force =     0.04367822    0.07979395    0.31735602
     atom  115 type  3   force =     0.05879803   -0.00099293    0.19822606
     atom  116 type  4   force =    -0.03595932   -0.09037205   -0.30840820
     atom  117 type  3   force =    -0.00222422   -0.00634993   -0.03676734
     atom  118 type  3   force =    -0.00778061    0.01585177    0.01473483
     atom  119 type  3   force =    -0.01868064   -0.06555312   -0.23646945
     atom  120 type  4   force =     0.02171732    0.07520658    0.31336723
     atom  121 type  3   force =    -0.14682763    0.14496308   -0.14088938
     atom  122 type  4   force =     0.18952092   -0.17169740    0.19959632
     atom  123 type  3   force =     0.02442097   -0.05223992   -0.01861591
     atom  124 type  3   force =     0.01164043    0.07445631    0.22385695
     atom  125 type  4   force =    -0.02929520   -0.08120442   -0.31138068
     atom  126 type  3   force =     0.14507862   -0.12517749    0.14570720
     atom  127 type  4   force =    -0.19292524    0.16360198   -0.20081770
     atom  128 type  3   force =    -0.09647028   -0.17985238   -0.18506531
     atom  129 type  4   force =     0.15150887    0.20314693    0.22500158
     atom  130 type  3   force =    -0.01285597    0.03431992    0.01253381
     atom  131 type  3   force =    -0.07227540   -0.16365751   -0.16684885
     atom  132 type  4   force =     0.10775741    0.21214854    0.21927760
     atom  133 type  3   force =     0.03603024    0.01191674    0.03229984
     atom  134 type  3   force =    -0.12664370    0.17617717    0.06914832
     atom  135 type  4   force =     0.18009475   -0.24857596   -0.09250553
     atom  136 type  3   force =     0.07164243    0.16557424    0.17223646
     atom  137 type  4   force =    -0.10234998   -0.21194735   -0.22359089
     atom  138 type  3   force =     0.21437983   -0.03726856    0.08808123
     atom  139 type  4   force =    -0.28949359    0.03644837   -0.12927696
     atom  140 type  3   force =     0.12793235   -0.14066801    0.06629363
     atom  141 type  4   force =    -0.07677894    0.13938780    0.17861561
     atom  142 type  4   force =     0.11758155    0.13587311   -0.17737010
     atom  143 type  4   force =    -0.19009682   -0.12175000   -0.10081453
     atom  144 type  3   force =    -0.10763141    0.16455402    0.00440185
     atom  145 type  4   force =     0.19048590    0.02053498    0.14503304
     atom  146 type  4   force =    -0.14157222   -0.19645021    0.06995917
     atom  147 type  4   force =     0.07475440   -0.02917986   -0.23441522
     atom  148 type  1   force =    -0.01373304    0.02052890   -0.10230182
     atom  149 type  1   force =    -0.01158232   -0.00336187   -0.04661732
     atom  150 type  1   force =    -0.00690228    0.03734137   -0.02373895
     atom  151 type  2   force =     0.06247270   -0.00472398    0.04392324
     atom  152 type  3   force =     0.11384019    0.15519501   -0.12391186
     atom  153 type  4   force =    -0.15377791   -0.22738019    0.17024111
     atom  154 type  3   force =    -0.03517573    0.03258419   -0.24097552
     atom  155 type  4   force =     0.05601252   -0.03006955    0.31826024
     atom  156 type  3   force =    -0.15060379   -0.14418915   -0.09607429
     atom  157 type  4   force =     0.20356223    0.19177507    0.15470917
     atom  158 type  3   force =     0.02228591    0.04774482   -0.04111610
     atom  159 type  3   force =     0.02043447   -0.03142777    0.23107902
     atom  160 type  4   force =    -0.05013113    0.03772916   -0.31707044
     atom  161 type  3   force =    -0.02250276   -0.02177974   -0.01757919
     atom  162 type  3   force =     0.08060761    0.01065947    0.22486650
     atom  163 type  4   force =    -0.04367822    0.07979395   -0.31735602
     atom  164 type  3   force =    -0.05879803   -0.00099293   -0.19822606
     atom  165 type  4   force =     0.03595932   -0.09037205    0.30840820
     atom  166 type  3   force =     0.00222422   -0.00634993    0.03676734
     atom  167 type  3   force =     0.00778061    0.01585177   -0.01473483
     atom  168 type  3   force =     0.01868064   -0.06555312    0.23646945
     atom  169 type  4   force =    -0.02171732    0.07520658   -0.31336723
     atom  170 type  3   force =     0.14682763    0.14496308    0.14088938
     atom  171 type  4   force =    -0.18952092   -0.17169740   -0.19959632
     atom  172 type  3   force =    -0.02442097   -0.05223992    0.01861591
     atom  173 type  3   force =    -0.01164043    0.07445631   -0.22385695
     atom  174 type  4   force =     0.02929520   -0.08120442    0.31138068
     atom  175 type  3   force =    -0.14507862   -0.12517749   -0.14570720
     atom  176 type  4   force =     0.19292524    0.16360198    0.20081770
     atom  177 type  3   force =     0.09647028   -0.17985238    0.18506531
     atom  178 type  4   force =    -0.15150887    0.20314693   -0.22500158
     atom  179 type  3   force =     0.01285597    0.03431992   -0.01253381
     atom  180 type  3   force =     0.07227540   -0.16365751    0.16684885
     atom  181 type  4   force =    -0.10775741    0.21214854   -0.21927760
     atom  182 type  3   force =    -0.03603024    0.01191674   -0.03229984
     atom  183 type  3   force =     0.12664370    0.17617717   -0.06914832
     atom  184 type  4   force =    -0.18009475   -0.24857596    0.09250553
     atom  185 type  3   force =    -0.07164243    0.16557424   -0.17223646
     atom  186 type  4   force =     0.10234998   -0.21194735    0.22359089
     atom  187 type  3   force =    -0.21437983   -0.03726856   -0.08808123
     atom  188 type  4   force =     0.28949359    0.03644837    0.12927696
     atom  189 type  3   force =    -0.12793235   -0.14066801   -0.06629363
     atom  190 type  4   force =     0.07677894    0.13938780   -0.17861561
     atom  191 type  4   force =    -0.11758155    0.13587311    0.17737010
     atom  192 type  4   force =     0.19009682   -0.12175000    0.10081453
     atom  193 type  3   force =     0.10763141    0.16455402   -0.00440185
     atom  194 type  4   force =    -0.19048590    0.02053498   -0.14503304
     atom  195 type  4   force =     0.14157222   -0.19645021   -0.06995917
     atom  196 type  4   force =    -0.07475440   -0.02917986    0.23441522
     The non-local contrib.  to forces
     atom    1 type  1   force =     0.28810939    0.51818501    2.43362111
     atom    2 type  1   force =     0.46547777    0.20383503    2.46600402
     atom    3 type  1   force =     0.90110679    1.82725999    1.44750144
     atom    4 type  2   force =    -0.71003960   -0.87661638   -1.09154467
     atom    5 type  3   force =     0.08868580   -0.10835777   -0.15456954
     atom    6 type  4   force =     0.06057045   -0.09069297   -0.06758228
     atom    7 type  3   force =    -0.00834449   -0.06838163   -0.25675271
     atom    8 type  4   force =    -0.02194565   -0.01368243   -0.12906755
     atom    9 type  3   force =    -0.14449933    0.10694909   -0.15142028
     atom   10 type  4   force =    -0.08176056    0.07785527   -0.06153360
     atom   11 type  3   force =     0.25717374   -0.42101345   -0.37407479
     atom   12 type  3   force =     0.05274529   -0.00721107    0.25925540
     atom   13 type  4   force =     0.02208758    0.01500147    0.12761969
     atom   14 type  3   force =    -0.07561588    0.06527237   -0.08552206
     atom   15 type  3   force =     0.15616717   -0.10605965    0.26107476
     atom   16 type  4   force =     0.02241312    0.02739716    0.12721106
     atom   17 type  3   force =    -0.10970504    0.09487075   -0.17958083
     atom   18 type  4   force =    -0.01913912   -0.03274800   -0.12312505
     atom   19 type  3   force =    -0.01641501   -0.00978249   -0.07878661
     atom   20 type  3   force =     0.04604383   -0.04425421   -0.02360975
     atom   21 type  3   force =     0.03423152    0.07066892    0.26826770
     atom   22 type  4   force =     0.00920057    0.03091761    0.12815722
     atom   23 type  3   force =     0.12999861   -0.10288008    0.16237604
     atom   24 type  4   force =     0.07601952   -0.06821961    0.07938674
     atom   25 type  3   force =    -0.13432269    0.31981781    0.12951554
     atom   26 type  3   force =    -0.03360904   -0.08731408   -0.21849663
     atom   27 type  4   force =    -0.01325775   -0.03307142   -0.12480479
     atom   28 type  3   force =    -0.12202789    0.09325772   -0.13466384
     atom   29 type  4   force =    -0.07747798    0.06760216   -0.07943551
     atom   30 type  3   force =     0.18646227    0.23047398    0.28574882
     atom   31 type  4   force =     0.05312354    0.08570157    0.08859362
     atom   32 type  3   force =     0.04098278   -0.13084182   -0.04467472
     atom   33 type  3   force =     0.06912901    0.20079455    0.21662872
     atom   34 type  4   force =     0.04371083    0.08728253    0.08877189
     atom   35 type  3   force =    -0.54894572    0.03039004   -0.27167173
     atom   36 type  3   force =     0.11327428   -0.19153964   -0.11712236
     atom   37 type  4   force =     0.07397089   -0.10078093   -0.03584349
     atom   38 type  3   force =    -0.10713988   -0.12018095   -0.15653885
     atom   39 type  4   force =    -0.04203769   -0.08393471   -0.08989675
     atom   40 type  3   force =    -0.23388032    0.00425360   -0.12012121
     atom   41 type  4   force =    -0.11834252    0.01458795   -0.05241972
     atom   42 type  3   force =    -0.47943218    0.48799430   -0.27858814
     atom   43 type  4   force =    -0.04419895    0.07568111    0.08337849
     atom   44 type  4   force =     0.05569358    0.06477932   -0.08378615
     atom   45 type  4   force =    -0.09175211   -0.05949760   -0.04898348
     atom   46 type  3   force =     0.36055185   -0.61714265   -0.05703543
     atom   47 type  4   force =     0.09781493    0.00153199    0.06952372
     atom   48 type  4   force =    -0.06855645   -0.09308384    0.03276199
     atom   49 type  4   force =     0.03424278   -0.01357190   -0.11389869
     atom   50 type  1   force =    -0.28810939    0.51818501   -2.43362111
[...]
     atom  116 type  4   force =     0.00001993   -0.00000202   -0.00000823
     atom  117 type  3   force =     0.00004167    0.00000409   -0.00003649
     atom  118 type  3   force =    -0.00000663    0.00002702   -0.00006804
     atom  119 type  3   force =    -0.00001649    0.00002021   -0.00002942
     atom  120 type  4   force =    -0.00000028    0.00000464    0.00000261
     atom  121 type  3   force =    -0.00001425   -0.00000835   -0.00003465
     atom  122 type  4   force =     0.00000065   -0.00000468    0.00000074
     atom  123 type  3   force =    -0.00003136   -0.00000449   -0.00008033
     atom  124 type  3   force =    -0.00002024    0.00002131   -0.00004290
     atom  125 type  4   force =    -0.00000052    0.00000402    0.00000510
     atom  126 type  3   force =     0.00001924    0.00000069   -0.00005542
     atom  127 type  4   force =     0.00001475   -0.00000404   -0.00000257
     atom  128 type  3   force =    -0.00004961   -0.00000294   -0.00002665
     atom  129 type  4   force =    -0.00000680    0.00000194   -0.00000250
     atom  130 type  3   force =    -0.00006808   -0.00000497   -0.00001817
     atom  131 type  3   force =    -0.00005096    0.00000245    0.00000057
     atom  132 type  4   force =    -0.00001007    0.00000463    0.00000503
     atom  133 type  3   force =    -0.00003807   -0.00001494    0.00000035
     atom  134 type  3   force =    -0.00005658   -0.00000430    0.00001081
     atom  135 type  4   force =    -0.00000984    0.00000019    0.00000523
     atom  136 type  3   force =    -0.00007675    0.00000544    0.00001507
     atom  137 type  4   force =    -0.00001800    0.00000377    0.00000899
     atom  138 type  3   force =    -0.00006785   -0.00000998   -0.00000797
     atom  139 type  4   force =    -0.00001215   -0.00000142    0.00000165
     atom  140 type  3   force =    -0.00001290    0.00001772   -0.00004655
     atom  141 type  4   force =    -0.00000688    0.00000426   -0.00000312
     atom  142 type  4   force =     0.00000494    0.00000416   -0.00001633
     atom  143 type  4   force =    -0.00000762    0.00000065   -0.00001144
     atom  144 type  3   force =    -0.00003211   -0.00000670   -0.00001692
     atom  145 type  4   force =    -0.00000678   -0.00000150   -0.00000536
     atom  146 type  4   force =    -0.00001072   -0.00000065   -0.00000054
     atom  147 type  4   force =    -0.00000288   -0.00000164   -0.00000533
     atom  148 type  1   force =     0.00008141    0.00001498    0.00000447
     atom  149 type  1   force =    -0.00000173    0.00003916    0.00005731
     atom  150 type  1   force =    -0.00016591   -0.00000417    0.00001334
     atom  151 type  2   force =     0.00003749    0.00000278    0.00006983
     atom  152 type  3   force =     0.00003626    0.00000346    0.00007515
     atom  153 type  4   force =     0.00001461    0.00000720    0.00000788
     atom  154 type  3   force =    -0.00001289   -0.00001662    0.00004173
     atom  155 type  4   force =    -0.00000402   -0.00000125   -0.00000416
     atom  156 type  3   force =    -0.00002875   -0.00001916    0.00008979
     atom  157 type  4   force =    -0.00001249   -0.00000333    0.00001322
     atom  158 type  3   force =    -0.00000271   -0.00000084    0.00008691
     atom  159 type  3   force =     0.00000773   -0.00001708    0.00006468
     atom  160 type  4   force =     0.00000412   -0.00000066    0.00000223
     atom  161 type  3   force =     0.00002514   -0.00002421    0.00010042
     atom  162 type  3   force =     0.00005102   -0.00000813    0.00006643
     atom  163 type  4   force =     0.00001186   -0.00000320    0.00000838
     atom  164 type  3   force =     0.00005155   -0.00000528    0.00006694
     atom  165 type  4   force =     0.00001269    0.00000079    0.00001549
     atom  166 type  3   force =     0.00005984    0.00001018    0.00004122
     atom  167 type  3   force =     0.00007439    0.00002525    0.00006811
     atom  168 type  3   force =     0.00003740    0.00000422    0.00001963
     atom  169 type  4   force =     0.00000583    0.00000299   -0.00000801
     atom  170 type  3   force =     0.00002010   -0.00001895    0.00004149
     atom  171 type  4   force =     0.00000023   -0.00000581    0.00000018
     atom  172 type  3   force =     0.00003331   -0.00001048    0.00008526
     atom  173 type  3   force =     0.00005466    0.00000154    0.00007152
     atom  174 type  4   force =     0.00001278    0.00000103    0.00000664
     atom  175 type  3   force =     0.00006458    0.00000145    0.00008510
     atom  176 type  4   force =     0.00001422   -0.00000043    0.00001389
     atom  177 type  3   force =     0.00001398   -0.00000876    0.00006173
     atom  178 type  4   force =     0.00000058    0.00000035    0.00001105
     atom  179 type  3   force =     0.00004939    0.00000399    0.00007404
     atom  180 type  3   force =     0.00001322    0.00003684    0.00003815
     atom  181 type  4   force =    -0.00000750    0.00001112   -0.00000102
     atom  182 type  3   force =    -0.00003388   -0.00000411    0.00005024
     atom  183 type  3   force =    -0.00000044   -0.00002445    0.00007727
     atom  184 type  4   force =    -0.00000990   -0.00000643    0.00001399
     atom  185 type  3   force =     0.00004062    0.00001342    0.00004826
     atom  186 type  4   force =     0.00000354    0.00000399    0.00000249
     atom  187 type  3   force =     0.00003129    0.00000094    0.00005146
     atom  188 type  4   force =    -0.00000042   -0.00000102    0.00000429
     atom  189 type  3   force =    -0.00002884    0.00001619    0.00004735
     atom  190 type  4   force =    -0.00000696    0.00000135    0.00000653
     atom  191 type  4   force =    -0.00000750    0.00000190    0.00001389
     atom  192 type  4   force =    -0.00001288    0.00000330    0.00001032
     atom  193 type  3   force =    -0.00009374   -0.00002686    0.00003063
     atom  194 type  4   force =    -0.00001557   -0.00000397    0.00000814
     atom  195 type  4   force =    -0.00001826   -0.00000552    0.00000400
     atom  196 type  4   force =    -0.00002162   -0.00000419    0.00001010

     Total force =     3.417683     Total SCF correction =     0.000844

     BFGS Geometry Optimization
     Energy error            =      0.0E+00 Ry
     Gradient error          =      3.2E-01 Ry/Bohr

     number of scf cycles    =   1
     number of bfgs steps    =   0

     energy             new  =   -1651.7545540074 Ry

     new trust radius        =       0.3388942612 bohr
     new conv_thr            =       0.0000001000 Ry


ATOMIC_POSITIONS (angstrom)
O            -4.5718150334        3.8437084156        9.4070392390
O             0.0450912217        4.3157915035       10.8611203660
O             3.8121559509        5.3206741988       12.0130357773
N            -7.2998715430        2.7321177412       12.8044753465
C            -1.7502584340        1.4583517771       12.9824703558
H            -2.3334937143        2.3183819042       13.6258000847
C            -0.9732937724        0.6983810285       13.5357105641
H            -0.7752470220        0.8293529016       14.7442160939
C            -0.3808874315        5.4443249723       12.9322594567
H             0.3999867812        4.7000207757       13.5038543546
C            -0.5135775861        5.2093174099       11.6439211850
C            -1.3824470824        0.4541129415       11.1569287408
H            -1.5740106115        0.3114849805        9.9559133872
C            -2.0507931990        1.4309491810       11.6999970043
C            -2.8808402109        2.2774864532       11.1076733047
H            -3.0879837866        2.0325885194        9.9255603639
C            -3.5763096999        3.3190831940       11.3354415863
H            -3.4016977258        3.6111847515       12.4920322307
C            -4.4244789531        4.1124261566       10.6403921978
C            -5.1531569583        5.2064880848       11.2042662529
C            -5.9747226233        0.3550589781       10.5428331352
H            -6.0667728520        0.0676754697        9.3492774011
C            -6.6274625233        1.2740218029       10.9828395786
H            -7.3529063593        1.9351915887       10.2362006640
C            -6.6452113388        1.6964947364       12.2341868851
C            -5.7945014205        0.9262130177       12.8937854028
H            -5.6801531790        1.2423818577       14.0723390202
C            -5.1538813198        5.6285132334       12.4439684015
H            -4.4204316671        4.9919675315       13.1955244797
C            -8.4494930038        3.0393099385       12.4889262540
H            -8.9541460302        2.2515186362       11.6533174231
C            -9.2846734929        4.0312223621       12.8440404610
C             5.8203984831        4.3009582244       12.3853946081
H             5.4147850668        3.4875545886       11.5555299836
C             4.9855507269        5.2626222544       12.6307350721
C             5.5049413295        0.4225156956       13.5378315035
H             4.8089039514        1.3658820612       13.8769418898
C            -9.6740233708        0.2496428470       14.0415452708
H            -9.2823957814        1.0501373050       14.8946958340
C            -8.9604098828        4.9575824732       13.7267461319
H            -7.8506943376        4.8174849548       14.2226748788
C             0.8828360483        3.4898389442       11.4310775010
H             1.3333809269        2.7500761853       10.6968498316
H             0.4390430834        2.8314035440       12.2360796875
H             1.7782949561        3.9655738346       11.9165527495
C             3.1496504018        0.8064662421       12.1639107902
H             2.2141730843        0.8512602072       11.5273336991
H             3.7178119843        1.7411140152       11.8729531100
H             2.7821668456        1.0116786672       13.2055769899
O            13.2291724534        1.0285084156        0.3733682910
O            -6.6670189517        1.5005915035       18.4801022340
O           -10.4340836909        2.5054741988       17.3281868227
N             0.6779438030        5.5473177412       16.5367472535
C            -4.8716693060        4.2735517771       16.3587522442
H            -4.2884340257        5.1335819042       15.7154225153
C            -5.6486339576        3.5135810285       15.8055120359
H            -5.8466807180        3.6445529016       14.5970065061
C            -6.2410403085        2.6291249723       16.4089631333
H            -7.0219145212        1.8848207757       15.8373682454
C            -6.1083501539        2.3941174099       17.6973014150
C            -5.2394806476        3.2693129415       18.1842938492
H            -5.0479171285        3.1266849805       19.3853092128
C            -4.5711345410        4.2461491810       17.6412255957
C            -3.7410875191        5.0926864532       18.2335492953
H            -3.5339439434        4.8477885194       19.4156622361
C            -3.0456180401        0.5038831940       18.0057810137
H            -3.2202300142        0.7959847515       16.8491903693
C            -2.1974487869        1.2972261566       18.7008304022
C            -1.4687707817        2.3912880848       18.1369563471
C            -0.6472051167        3.1702589781       18.7983894648
H            14.7241302720        2.8828754697        0.4311301289
C             0.0055347833        4.0892218029       18.3583830214
H             0.7309786293        4.7503915887       19.1050219360
C             0.0232835988        4.5116947364       17.1070357149
C            -0.8274263195        3.7414130177       16.4474371972
H            -0.9417745510        4.0575818577       15.2688835698
C            -1.4680464202        2.8133132334       16.8972541985
H            -2.2014960729        2.1767675315       16.1456981203
C             1.8275652638        0.2241099385       16.8522963460
H             2.3322182902        5.0667186362       17.6879051669
C             2.6627457529        1.2160223621       16.4971821390
C           -12.4423262231        1.4857582244       16.9558279919
H           -12.0367128068        0.6723545886       17.7856926064
C           -11.6074784669        2.4474222544       16.7104875279
C           -12.1268690695        3.2377156956       15.8033910965
H           -11.4308316814        4.1810820612       15.4642807102
C             3.0520956308        3.0648428470       15.2996773192
H             2.6604680414        3.8653373050       14.4465267660
C             2.3384821428        2.1423824732       15.6144764681
H             1.2287665976        2.0022849548       15.1185477112
C            -7.5047637783        0.6746389442       17.9101450990
H            -7.9553086669       -0.0651238147       18.6443727684
H            -7.0609708234        0.0162035440       17.1051429125
H            -8.4002226861        1.1503738346       17.4246698505
C            -9.7715781418        3.6216662421       17.1773118098
H            -8.8361008243        3.6664602072       17.8138889009
H           -10.3397397243        4.5563140152       17.4682694900
H            -9.4040945856        3.8268786672       16.1356456001
O             5.5895298734        1.7866915844       10.1537758210
O             0.9726236183        1.3146084965        8.6996946940
O            -2.7944411109        0.3097258012        7.5477792927
N             8.3175863830        2.8982822588        6.7563397135
C             2.7679732740        4.1720482229        6.5783447142
H             3.3512085543        3.3120180958        5.9350149853
C             1.9910086124        4.9320189715        6.0251044959
H             1.7929618620        4.8010470984        4.8165989761
C             1.3986022715        0.1860750277        6.6285556033
H             0.6177280588        0.9303792243        6.0569607054
C             1.5312924261        0.4210825901        7.9168938850
C             2.4001619224        5.1762870585        8.4038863192
H             2.5917254515        5.3189150195        9.6049016828
C             3.0685080390        4.1994508190        7.8608180657
C             3.8985550509        3.3529135468        8.4531417653
H             4.1056986366        3.5978114806        9.6352547061
C             4.5940245399        2.3113168060        8.2253734837
H             4.4194125658        2.0192152485        7.0687828293
C             5.4421937931        1.5179738434        8.9204228722
C             6.1708717983        0.4239119152        8.3565488171
C             6.9924374633        5.2753410219        9.0179819348
H             7.0844876920        5.5627245303       10.2115376689
C             7.6451773633        4.3563781971        8.5779754914
H             8.3706211993        3.6952084113        9.3246144060
C             7.6629261788        3.9339052636        7.3266281849
C             6.8122162605        4.7041869823        6.6670296672
H             6.6978680290        4.3880181423        5.4884760398
C             6.1715961598        0.0018867666        7.1168466585
H             5.4381465071        0.6384324685        6.3652905903
C             9.4672078438        2.5910900615        7.0718888060
H             9.9718608702        3.3788813638        7.9074976369
C            10.3023883329        1.5991776379        6.7167746090
C            -4.8026836431        1.3294417756        7.1754204619
H            -4.3970702268        2.1428454114        8.0052850764
C            -3.9678358869        0.3677777456        6.9300799879
C            -4.4872264895        5.2078843044        6.0229835565
H            -3.7911891014        4.2645179388        5.6838731802
C            10.6917382108        5.3807571530        5.5192697892
H            10.3001106214        4.5802626950        4.6661192360
C             9.9781247228        0.6728175268        5.8340689281
H             8.8684091776        0.8129150452        5.3381401812
C             0.1348788017        2.1405610558        8.1297375690
H            -0.3156660869        2.8803238147        8.8639652384
H             0.5786717566        2.7989964560        7.3247353825
H            -0.7605801061        1.6648261654        7.6442623205
C            -2.1319355618        4.8239337579        7.3969042798
H            -1.1964582443        4.7791397928        8.0334813609
H            -2.7000971443        3.8892859848        7.6878619600
H            -1.7644520056        4.6187213328        6.3552380701
O           -12.2114576134        4.6018915844       19.1874467690
O             7.6847338017        4.1298084965        1.0807128360
O            11.4517985309        3.1249258012        2.2326282373
N             0.3397710370        0.0830822588        3.0240678165
C             5.8893841460        1.3568482229        3.2020628258
H             5.3061488657        0.4968180958        3.8453925547
C             6.6663488076        2.1168189715        3.7553030341
H             6.8643955580        1.9858470984        4.9638085639
C             7.2587551485        3.0012750277        3.1518519267
H             8.0396293612        3.7455792243        3.7234468246
C             7.1260649939        3.2362825901        1.8635136550
C             6.2571954976        2.3610870585        1.3765212108
H             6.0656319685        2.5037150195        0.1755058472
C             5.5888493810        1.3842508190        1.9195894643
C             4.7588023691        0.5377135468        1.3272657747
H             4.5516587834        0.7826114806        0.1451528339
C             4.0633328801        5.1265168060        1.5550340563
H             4.2379448542        4.8344152485        2.7116247007
C             3.2151636269        4.3331738434        0.8599846578
C             2.4864856217        3.2391119152        1.4238587129
C             1.6649199567        2.4601410219        0.7624255952
H           -13.7064154320        2.7475245303       19.1296849311
C             1.0121800567        1.5411781971        1.2024320486
H             0.2867362207        0.8800084113        0.4557931240
C             0.9944312412        1.1187052636        2.4537793451
C             1.8451411595        1.8889869823        3.1133778728
H             1.9594894010        1.5728181423        4.2919314902
C             2.4857612602        2.8170867666        2.6635608715
H             3.2192109129        3.4536324685        3.4151169397
C            -0.8098504238        5.4062900615        2.7085187240
H            -1.3145034502        0.5636813638        1.8729098931
C            -1.6450309129        4.4143776379        3.0636329210
C            13.4600410631        4.1446417756        2.6049870781
H            13.0544276468        4.9580454114        1.7751224536
C            12.6251933069        3.1829777456        2.8503275421
C            13.1445839095        2.3926843044        3.7574239735
H            12.4485465314        1.4493179388        4.0965343598
C            -2.0343807908        2.5655571530        4.2611377408
H            -1.6427532014        1.7650626950        5.1142882940
C            -1.3207673028        3.4880175268        3.9463386019
H            -0.2110517576        3.6281150452        4.4422673488
C             8.5224786183        4.9557610558        1.6506699610
H             8.9730235069        5.6955238147        0.9164423016
H             8.0786856634        5.6141964560        2.4556721475
H             9.4179375261        4.4800261654        2.1361452195
C            10.7892929818        2.0087337579        2.3835032502
H             9.8538156643        1.9639397928        1.7469261691
H            11.3574545643        1.0740859848        2.0925455800
H            10.4218094256        1.8035213328        3.4251694599



     Writing config-only to output data dir ./outdir/4amp_pbe0.save/
     NEW-OLD atomic charge density approx. for the potential

     total cpu time spent up to now is      584.1 secs

     per-process dynamical memory:   122.3 Mb
