
     Program PWSCF v.7.2 starts on  9Jan2024 at 11:59:54 

     This program is part of the open-source Quantum ESPRESSO suite
     for quantum simulation of materials; please cite
         "P. Giannozzi et al., J. Phys.:Condens. Matter 21 395502 (2009);
         "P. Giannozzi et al., J. Phys.:Condens. Matter 29 465901 (2017);
         "P. Giannozzi et al., J. Chem. Phys. 152 154105 (2020);
          URL http://www.quantum-espresso.org", 
     in publications or presentations arising from this work. More details at
     http://www.quantum-espresso.org/quote

     Parallel version (MPI & OpenMP), running on      96 processor cores
     Number of MPI processes:                48
     Threads/MPI process:                     2

     MPI processes distributed on     1 nodes
     242910 MiB available memory on the printing compute node when the environment starts

     Reading input from 4amp15_pbe0_scf.in

     Current dimensions of program PWSCF are:
     Max number of different atomic species (ntypx) = 10
     Max number of k-points (npk) =  40000
     Max angular momentum in pseudopotentials (lmaxx) =  4

     IMPORTANT: XC functional enforced from input :
     Exchange-correlation= PBE0
                           (   6   4   8   4   0   0   0)
     EXX-fraction              =        0.25
     Any further DFT definition will be discarded
     Please, verify this is what you really want


     gamma-point specific algorithms are used
     Message from routine setup:
     using ibrav=0 with symmetry is DISCOURAGED, use correct ibrav instead

     R & G space division:  proc/nbgrp/npool/nimage =      48
     Subspace diagonalization in iterative solution of the eigenvalue problem:
     one sub-group per band group will be used
     ELPA distributed-memory algorithm (size of sub-group:  3*  3 procs)

     EXX: q-point mesh:     1    1    1
     EXX: grid of k+q points same as grid of k-points

     Parallelization info
     --------------------
     sticks:   dense  smooth     PW     G-vecs:    dense   smooth      PW
     Min         216     216     53                34076    34076    4248
     Max         218     218     58                34102    34102    4266
     Sum       10419   10419   2595              1636139  1636139  204437

     Using Slab Decomposition



     bravais-lattice index     =            0
     lattice parameter (alat)  =      30.7969  a.u.
     unit-cell volume          =   12112.4072 (a.u.)^3
     number of atoms/cell      =          196
     number of atomic types    =            4
     number of electrons       =       560.00
     number of Kohn-Sham states=          286
     kinetic-energy cutoff     =     100.0000  Ry
     charge density cutoff     =     400.0000  Ry
     cutoff for Fock operator  =     200.0000  Ry
     scf convergence threshold =      1.0E-07
     mixing beta               =       0.7000
     number of iterations used =            8  local-TF  mixing
     Exchange-correlation= PBE0
                           (   6   4   8   4   0   0   0)
     EXX-fraction              =        0.25

     celldm(1)=  30.796867  celldm(2)=   0.000000  celldm(3)=   0.000000
     celldm(4)=   0.000000  celldm(5)=   0.000000  celldm(6)=   0.000000

     crystal axes: (cart. coord. in units of alat)
               a(1) = (   1.000000   0.000000   0.000000 )  
               a(2) = (   0.000000   0.345487   0.000000 )  
               a(3) = (  -0.937552   0.000000   1.200271 )  

     reciprocal axes: (cart. coord. in units 2 pi/alat)
               b(1) = (  1.000000 -0.000000  0.781117 )  
               b(2) = (  0.000000  2.894466 -0.000000 )  
               b(3) = (  0.000000  0.000000  0.833145 )  


     PseudoPot. # 1 for O  read from file:
     /home/yongkeat1017/miniconda3/pp/O_ONCV_PBE-1.2.upf
     MD5 check sum: e36c48deb68f4e355fffe4602be2c42c
     Pseudo is Norm-conserving, Zval =  6.0
     Generated using ONCVPSP code by D. R. Hamann
     Using radial grid of  602 points,  4 beta functions with: 
                l(1) =   0
                l(2) =   0
                l(3) =   1
                l(4) =   1

     PseudoPot. # 2 for N  read from file:
     /home/yongkeat1017/miniconda3/pp/N_ONCV_PBE-1.2.upf
     MD5 check sum: c233fa8df51455e992258b7c3dee8a9f
     Pseudo is Norm-conserving, Zval =  5.0
     Generated using ONCVPSP code by D. R. Hamann
     Using radial grid of  602 points,  4 beta functions with: 
                l(1) =   0
                l(2) =   0
                l(3) =   1
                l(4) =   1

     PseudoPot. # 3 for C  read from file:
     /home/yongkeat1017/miniconda3/pp/C_ONCV_PBE-1.2.upf
     MD5 check sum: 1a5f83a7b1f58d24996abe00ed223ac6
     Pseudo is Norm-conserving, Zval =  4.0
     Generated using ONCVPSP code by D. R. Hamann
     Using radial grid of  602 points,  4 beta functions with: 
                l(1) =   0
                l(2) =   0
                l(3) =   1
                l(4) =   1

     PseudoPot. # 4 for H  read from file:
     /home/yongkeat1017/miniconda3/pp/H_ONCV_PBE-1.2.upf
     MD5 check sum: bf21e08b90ac4ce7d0149ac4e8138190
     Pseudo is Norm-conserving, Zval =  1.0
     Generated using ONCVPSP code by D. R. Hamann
     Using radial grid of  602 points,  2 beta functions with: 
                l(1) =   0
                l(2) =   0

     atomic species   valence    mass     pseudopotential
        O              6.00    16.00000     O ( 1.00)
        N              5.00    14.00000     N ( 1.00)
        C              4.00    12.00000     C ( 1.00)
        H              1.00     1.00000     H ( 1.00)

      4 Sym. Ops., with inversion, found ( 2 have fractional translation)



   Cartesian axes

     site n.     atom                  positions (alat units)
         1           O   tau(   1) = (  -0.2805311   0.2358537   0.5772252  )
         2           O   tau(   2) = (   0.0027668   0.2648212   0.6664491  )
         3           O   tau(   3) = (   0.2339177   0.3264818   0.7371317  )
         4           N   tau(   4) = (  -0.4479273   0.1676454   0.7856952  )
         5           C   tau(   5) = (  -0.1073976   0.0894859   0.7966172  )
         6           H   tau(   6) = (  -0.1431855   0.1422582   0.8360925  )
         7           C   tau(   7) = (  -0.0597223   0.0428533   0.8305646  )
         8           H   tau(   8) = (  -0.0475699   0.0508899   0.9047196  )
         9           C   tau(   9) = (  -0.0233716   0.3340692   0.7935362  )
        10           H   tau(  10) = (   0.0245436   0.2883979   0.8286098  )
        11           C   tau(  11) = (  -0.0315136   0.3196489   0.7144825  )
        12           C   tau(  12) = (  -0.0848283   0.0278648   0.6846002  )
        13           H   tau(  13) = (  -0.0965828   0.0191130   0.6109047  )
        14           C   tau(  14) = (  -0.1258387   0.0878045   0.7179234  )
        15           C   tau(  15) = (  -0.1767712   0.1397488   0.6815778  )
        16           H   tau(  16) = (  -0.1894817   0.1247216   0.6090422  )
        17           C   tau(  17) = (  -0.2194459   0.2036622   0.6955539  )
        18           H   tau(  18) = (  -0.2087315   0.2215859   0.7665234  )
        19           C   tau(  19) = (  -0.2714904   0.2523425   0.6529050  )
        20           C   tau(  20) = (  -0.3162028   0.3194752   0.6875048  )
        21           C   tau(  21) = (  -0.3666149   0.0217868   0.6469186  )
        22           H   tau(  22) = (  -0.3722632   0.0041526   0.5736809  )
        23           C   tau(  23) = (  -0.4066676   0.0781752   0.6739179  )
        24           H   tau(  24) = (  -0.4511816   0.1187453   0.6281034  )
        25           C   tau(  25) = (  -0.4077567   0.1040986   0.7507018  )
        26           C   tau(  26) = (  -0.3555563   0.0568333   0.7911754  )
        27           H   tau(  27) = (  -0.3485398   0.0762338   0.8634926  )
        28           C   tau(  28) = (  -0.3162472   0.3453711   0.7635742  )
        29           H   tau(  29) = (  -0.2712420   0.3063121   0.8096904  )
        30           C   tau(  30) = (  -0.5184692   0.1864951   0.7663328  )
        31           H   tau(  31) = (  -0.5494352   0.1381554   0.7150591  )
        32           C   tau(  32) = (  -0.5697167   0.2473598   0.7881230  )
        33           C   tau(  33) = (   0.3571454   0.2639110   0.7599800  )
        34           H   tau(  34) = (   0.3322566   0.2139998   0.7090587  )
        35           C   tau(  35) = (   0.3059183   0.3229197   0.7750344  )
        36           C   tau(  36) = (   0.3377886   0.0259260   0.8306947  )
        37           H   tau(  37) = (   0.2950791   0.0838119   0.8515028  )
        38           C   tau(  38) = (  -0.5936076   0.0153183   0.8616031  )
        39           H   tau(  39) = (  -0.5695770   0.0644375   0.9139532  )
        40           C   tau(  40) = (  -0.5498196   0.3042022   0.8422867  )
        41           H   tau(  41) = (  -0.4817264   0.2956056   0.8727174  )
        42           C   tau(  42) = (   0.0541717   0.2141400   0.7014222  )
        43           H   tau(  43) = (   0.0818176   0.1687474   0.6563693  )
        44           H   tau(  44) = (   0.0269401   0.1737377   0.7508179  )
        45           H   tau(  45) = (   0.1091179   0.2433315   0.7312114  )
        46           C   tau(  46) = (   0.1932657   0.0494856   0.7463896  )
        47           H   tau(  47) = (   0.1358638   0.0522342   0.7073286  )
        48           H   tau(  48) = (   0.2281286   0.1068365   0.7285361  )
        49           H   tau(  49) = (   0.1707165   0.0620776   0.8103072  )
        50           O   tau(  50) = (   0.8117551   0.0631103   0.0229102  )
        51           O   tau(  51) = (  -0.4090949   0.0920778   1.1339573  )
        52           O   tau(  52) = (  -0.6402457   0.1537384   1.0632746  )
        53           N   tau(  53) = (   0.0415993   0.3403889   1.0147111  )
        54           C   tau(  54) = (  -0.2989304   0.2622294   1.0037892  )
        55           H   tau(  55) = (  -0.2631425   0.3150017   0.9643138  )
        56           C   tau(  56) = (  -0.3466058   0.2155968   0.9698418  )
        57           H   tau(  57) = (  -0.3587581   0.2236334   0.8956867  )
        58           C   tau(  58) = (  -0.3829564   0.1613257   1.0068702  )
        59           H   tau(  59) = (  -0.4308716   0.1156545   0.9717965  )
        60           C   tau(  60) = (  -0.3748144   0.1469054   1.0859239  )
        61           C   tau(  61) = (  -0.3214997   0.2006083   1.1158062  )
        62           H   tau(  62) = (  -0.3097452   0.1918565   1.1895017  )
        63           C   tau(  63) = (  -0.2804893   0.2605479   1.0824830  )
        64           C   tau(  64) = (  -0.2295568   0.3124923   1.1188286  )
        65           H   tau(  65) = (  -0.2168463   0.2974651   1.1913642  )
        66           C   tau(  66) = (  -0.1868821   0.0309188   1.1048525  )
        67           H   tau(  67) = (  -0.1975965   0.0488424   1.0338829  )
        68           C   tau(  68) = (  -0.1348376   0.0795991   1.1475014  )
        69           C   tau(  69) = (  -0.0901252   0.1467318   1.1129015  )
        70           C   tau(  70) = (  -0.0397131   0.1945302   1.1534877  )
        71           H   tau(  71) = (   0.9034872   0.1768961   0.0264546  )
        72           C   tau(  72) = (   0.0003396   0.2509187   1.1264885  )
        73           H   tau(  73) = (   0.0448536   0.2914887   1.1723030  )
        74           C   tau(  74) = (   0.0014287   0.2768420   1.0497046  )
        75           C   tau(  75) = (  -0.0507717   0.2295768   1.0092310  )
        76           H   tau(  76) = (  -0.0577882   0.2489772   0.9369138  )
        77           C   tau(  77) = (  -0.0900808   0.1726277   1.0368322  )
        78           H   tau(  78) = (  -0.1350860   0.1335686   0.9907160  )
        79           C   tau(  79) = (   0.1121412   0.0137516   1.0340735  )
        80           H   tau(  80) = (   0.1431072   0.3108989   1.0853473  )
        81           C   tau(  81) = (   0.1633887   0.0746163   1.0122834  )
        82           C   tau(  82) = (  -0.7634734   0.0911676   1.0404263  )
        83           H   tau(  83) = (  -0.7385846   0.0412563   1.0913476  )
        84           C   tau(  84) = (  -0.7122463   0.1501762   1.0253720  )
        85           C   tau(  85) = (  -0.7441167   0.1986694   0.9697117  )
        86           H   tau(  86) = (  -0.7014071   0.2565553   0.9489035  )
        87           C   tau(  87) = (   0.1872796   0.1880618   0.9388033  )
        88           H   tau(  88) = (   0.1632489   0.2371809   0.8864531  )
        89           C   tau(  89) = (   0.1434916   0.1314587   0.9581197  )
        90           H   tau(  90) = (   0.0753983   0.1228622   0.9276890  )
        91           C   tau(  91) = (  -0.4604997   0.0413965   1.0989842  )
        92           H   tau(  92) = (  -0.4881456  -0.0039961   1.1440371  )
        93           H   tau(  93) = (  -0.4332681   0.0009943   1.0495884  )
        94           H   tau(  94) = (  -0.5154460   0.0705881   1.0691949  )
        95           C   tau(  95) = (  -0.5995937   0.2222290   1.0540168  )
        96           H   tau(  96) = (  -0.5421919   0.2249776   1.0930778  )
        97           H   tau(  97) = (  -0.6344566   0.2795799   1.0718703  )
        98           H   tau(  98) = (  -0.5770445   0.2348211   0.9900991  )
        99           O   tau(  99) = (   0.3429791   0.1096332   0.6230457  )
       100           O   tau( 100) = (   0.0596811   0.0806657   0.5338219  )
       101           O   tau( 101) = (  -0.1714697   0.0190051   0.4631392  )
       102           N   tau( 102) = (   0.5103753   0.1778415   0.4145757  )
       103           C   tau( 103) = (   0.1698456   0.2560010   0.4036537  )
       104           H   tau( 104) = (   0.2056335   0.2032287   0.3641784  )
       105           C   tau( 105) = (   0.1221703   0.3026336   0.3697064  )
       106           H   tau( 106) = (   0.1100179   0.2945970   0.2955513  )
       107           C   tau( 107) = (   0.0858196   0.0114177   0.4067347  )
       108           H   tau( 108) = (   0.0379044   0.0570890   0.3716611  )
       109           C   tau( 109) = (   0.0939616   0.0258380   0.4857884  )
       110           C   tau( 110) = (   0.1472763   0.3176221   0.5156708  )
       111           H   tau( 111) = (   0.1590308   0.3263739   0.5893662  )
       112           C   tau( 112) = (   0.1882867   0.2576824   0.4823476  )
       113           C   tau( 113) = (   0.2392192   0.2057381   0.5186931  )
       114           H   tau( 114) = (   0.2519297   0.2207653   0.5912287  )
       115           C   tau( 115) = (   0.2818939   0.1418247   0.5047170  )
       116           H   tau( 116) = (   0.2711795   0.1239010   0.4337475  )
       117           C   tau( 117) = (   0.3339384   0.0931444   0.5473659  )
       118           C   tau( 118) = (   0.3786508   0.0260117   0.5127661  )
       119           C   tau( 119) = (   0.4290629   0.3237001   0.5533523  )
       120           H   tau( 120) = (   0.4347112   0.3413343   0.6265900  )
       121           C   tau( 121) = (   0.4691156   0.2673117   0.5263530  )
       122           H   tau( 122) = (   0.5136296   0.2267416   0.5721675  )
       123           C   tau( 123) = (   0.4702047   0.2413883   0.4495691  )
       124           C   tau( 124) = (   0.4180043   0.2886536   0.4090955  )
       125           H   tau( 125) = (   0.4109878   0.2692531   0.3367783  )
       126           C   tau( 126) = (   0.3786952   0.0001158   0.4366967  )
       127           H   tau( 127) = (   0.3336900   0.0391748   0.3905805  )
       128           C   tau( 128) = (   0.5809172   0.1589918   0.4339381  )
       129           H   tau( 129) = (   0.6118832   0.2073315   0.4852119  )
       130           C   tau( 130) = (   0.6321647   0.0981271   0.4121479  )
       131           C   tau( 131) = (  -0.2946974   0.0815759   0.4402909  )
       132           H   tau( 132) = (  -0.2698086   0.1314871   0.4912122  )
       133           C   tau( 133) = (  -0.2434703   0.0225672   0.4252365  )
       134           C   tau( 134) = (  -0.2753406   0.3195609   0.3695762  )
       135           H   tau( 135) = (  -0.2326311   0.2616750   0.3487681  )
       136           C   tau( 136) = (   0.6560556   0.3301686   0.3386678  )
       137           H   tau( 137) = (   0.6320250   0.2810494   0.2863177  )
       138           C   tau( 138) = (   0.6122676   0.0412847   0.3579842  )
       139           H   tau( 139) = (   0.5441743   0.0498813   0.3275535  )
       140           C   tau( 140) = (   0.0082763   0.1313469   0.4988487  )
       141           H   tau( 141) = (  -0.0193696   0.1767395   0.5439017  )
       142           H   tau( 142) = (   0.0355079   0.1717492   0.4494530  )
       143           H   tau( 143) = (  -0.0466699   0.1021554   0.4690595  )
       144           C   tau( 144) = (  -0.1308177   0.2960013   0.4538813  )
       145           H   tau( 145) = (  -0.0734159   0.2932527   0.4929423  )
       146           H   tau( 146) = (  -0.1656806   0.2386504   0.4717348  )
       147           H   tau( 147) = (  -0.1082685   0.2834093   0.3899637  )
       148           O   tau( 148) = (  -0.7493071   0.2823766   1.1773607  )
       149           O   tau( 149) = (   0.4715428   0.2534091   0.0663136  )
       150           O   tau( 150) = (   0.7026937   0.1917485   0.1369963  )
       151           N   tau( 151) = (   0.0208487   0.0050980   0.1855598  )
       152           C   tau( 152) = (   0.3613784   0.0832575   0.1964817  )
       153           H   tau( 153) = (   0.3255905   0.0304852   0.2359571  )
       154           C   tau( 154) = (   0.4090537   0.1298901   0.2304291  )
       155           H   tau( 155) = (   0.4212061   0.1218535   0.3045842  )
       156           C   tau( 156) = (   0.4454044   0.1841612   0.1934007  )
       157           H   tau( 157) = (   0.4933196   0.2298324   0.2284744  )
       158           C   tau( 158) = (   0.4372624   0.1985815   0.1143470  )
       159           C   tau( 159) = (   0.3839477   0.1448786   0.0844647  )
       160           H   tau( 160) = (   0.3721932   0.1536304   0.0107692  )
       161           C   tau( 161) = (   0.3429373   0.0849390   0.1177879  )
       162           C   tau( 162) = (   0.2920048   0.0329946   0.0814423  )
       163           H   tau( 163) = (   0.2792943   0.0480218   0.0089067  )
       164           C   tau( 164) = (   0.2493301   0.3145681   0.0954184  )
       165           H   tau( 165) = (   0.2600445   0.2966445   0.1663880  )
       166           C   tau( 166) = (   0.1972856   0.2658878   0.0527695  )
       167           C   tau( 167) = (   0.1525732   0.1987551   0.0873694  )
       168           C   tau( 168) = (   0.1021611   0.1509567   0.0467832  )
       169           H   tau( 169) = (  -0.8410392   0.1685908   1.1738163  )
       170           C   tau( 170) = (   0.0621084   0.0945682   0.0737824  )
       171           H   tau( 171) = (   0.0175944   0.0539982   0.0279679  )
       172           C   tau( 172) = (   0.0610193   0.0686449   0.1505663  )
       173           C   tau( 173) = (   0.1132197   0.1159101   0.1910399  )
       174           H   tau( 174) = (   0.1202362   0.0965097   0.2633572  )
       175           C   tau( 175) = (   0.1525288   0.1728592   0.1634387  )
       176           H   tau( 176) = (   0.1975340   0.2119183   0.2095549  )
       177           C   tau( 177) = (  -0.0496932   0.3317353   0.1661974  )
       178           H   tau( 178) = (  -0.0806592   0.0345880   0.1149236  )
       179           C   tau( 179) = (  -0.1009407   0.2708706   0.1879875  )
       180           C   tau( 180) = (   0.8259214   0.2543193   0.1598446  )
       181           H   tau( 181) = (   0.8010326   0.3042306   0.1089233  )
       182           C   tau( 182) = (   0.7746943   0.1953107   0.1748989  )
       183           C   tau( 183) = (   0.8065646   0.1468175   0.2305592  )
       184           H   tau( 184) = (   0.7638551   0.0889316   0.2513674  )
       185           C   tau( 185) = (  -0.1248316   0.1574251   0.2614676  )
       186           H   tau( 186) = (  -0.1008010   0.1083060   0.3138178  )
       187           C   tau( 187) = (  -0.0810436   0.2140282   0.2421512  )
       188           H   tau( 188) = (  -0.0129503   0.2226247   0.2725819  )
       189           C   tau( 189) = (   0.5229477   0.3040904   0.1012867  )
       190           H   tau( 190) = (   0.5505936   0.3494830   0.0562338  )
       191           H   tau( 191) = (   0.4957161   0.3444926   0.1506825  )
       192           H   tau( 192) = (   0.5778939   0.2748988   0.1310760  )
       193           C   tau( 193) = (   0.6620417   0.1232579   0.1462541  )
       194           H   tau( 194) = (   0.6046399   0.1205093   0.1071931  )
       195           H   tau( 195) = (   0.6969046   0.0659070   0.1284007  )
       196           H   tau( 196) = (   0.6394925   0.1106658   0.2101718  )

     number of k points=     1
                       cart. coord. in units 2pi/alat
        k(    1) = (   0.0000000   0.0000000   0.0000000), wk =   2.0000000

     Dense  grid:   818070 G-vectors     FFT dimensions: ( 200,  72, 300)

     Estimated max dynamical RAM per process >     199.55 MB

     Estimated total dynamical RAM >       9.35 GB
     EXX: ACE will be initialized later

     Initial potential from superposition of free atoms

     starting charge     559.1302, renormalised to     560.0000
     Starting wfcs are random

     total cpu time spent up to now is        4.2 secs

     per-process dynamical memory:    88.5 Mb

     Self-consistent Calculation

     iteration #  1     ecut=   100.00 Ry     beta= 0.70
     Davidson diagonalization with overlap
[supercomputer:07217] 47 more processes have sent help message help-btl-vader.txt / cma-permission-denied
[supercomputer:07217] Set MCA parameter "orte_base_help_aggregate" to 0 to see all help / error messages
     ethr =  1.00E-02,  avg # of iterations = 14.0

     total cpu time spent up to now is       22.0 secs

     total energy              =   -1650.94799917 Ry
     estimated scf accuracy    <      26.29482983 Ry

     iteration #  2     ecut=   100.00 Ry     beta= 0.70
     Davidson diagonalization with overlap
     ethr =  4.70E-03,  avg # of iterations =  2.0

     total cpu time spent up to now is       25.9 secs

     total energy              =   -1649.18275555 Ry
     estimated scf accuracy    <       6.28920726 Ry

     iteration #  3     ecut=   100.00 Ry     beta= 0.70
     Davidson diagonalization with overlap
     ethr =  1.12E-03,  avg # of iterations =  4.0

     total cpu time spent up to now is       32.5 secs

     total energy              =   -1650.79474677 Ry
     estimated scf accuracy    <       0.43834932 Ry

     iteration #  4     ecut=   100.00 Ry     beta= 0.70
     Davidson diagonalization with overlap
     ethr =  7.83E-05,  avg # of iterations =  9.0

     total cpu time spent up to now is       39.5 secs

     total energy              =   -1650.85762633 Ry
     estimated scf accuracy    <       0.13402236 Ry

     iteration #  5     ecut=   100.00 Ry     beta= 0.70
     Davidson diagonalization with overlap
     ethr =  2.39E-05,  avg # of iterations =  4.0

     total cpu time spent up to now is       45.4 secs

     total energy              =   -1650.87773321 Ry
     estimated scf accuracy    <       0.01910323 Ry

     iteration #  6     ecut=   100.00 Ry     beta= 0.70
     Davidson diagonalization with overlap
     ethr =  3.41E-06,  avg # of iterations =  5.0

     total cpu time spent up to now is       50.7 secs

     total energy              =   -1650.87646181 Ry
     estimated scf accuracy    <       0.01320682 Ry

     iteration #  7     ecut=   100.00 Ry     beta= 0.70
     Davidson diagonalization with overlap
     ethr =  2.36E-06,  avg # of iterations =  3.0

     total cpu time spent up to now is       55.2 secs

     total energy              =   -1650.87628608 Ry
     estimated scf accuracy    <       0.00557438 Ry

     iteration #  8     ecut=   100.00 Ry     beta= 0.70
     Davidson diagonalization with overlap
     ethr =  9.95E-07,  avg # of iterations =  4.0

     total cpu time spent up to now is       60.2 secs

     total energy              =   -1650.87587321 Ry
     estimated scf accuracy    <       0.00266078 Ry

     iteration #  9     ecut=   100.00 Ry     beta= 0.70
     Davidson diagonalization with overlap
     ethr =  4.75E-07,  avg # of iterations = 13.0

     total cpu time spent up to now is       67.5 secs

     total energy              =   -1650.87608661 Ry
     estimated scf accuracy    <       0.00101838 Ry

     iteration # 10     ecut=   100.00 Ry     beta= 0.70
     Davidson diagonalization with overlap
     ethr =  1.82E-07,  avg # of iterations =  5.0

     total cpu time spent up to now is       72.6 secs

     End of self-consistent calculation

          k = 0.0000 0.0000 0.0000 (102219 PWs)   bands (ev):

   -21.7864 -21.7777 -21.7571 -21.7476 -21.5322 -21.5302 -21.5294 -21.5274
   -18.6844 -18.6814 -18.6761 -18.6760 -17.7603 -17.7587 -17.7571 -17.7558
   -16.7594 -16.7585 -16.7412 -16.7401 -16.7362 -16.7315 -16.7279 -16.7220
   -16.3123 -16.3057 -16.3038 -16.2973 -14.2346 -14.2297 -14.2280 -14.2224
   -13.6610 -13.6549 -13.6471 -13.6407 -13.0670 -13.0611 -13.0553 -13.0517
   -13.0154 -13.0140 -13.0034 -12.9984 -12.9271 -12.9116 -12.9054 -12.8925
   -12.5542 -12.5322 -12.5307 -12.5052 -12.3993 -12.3815 -12.3752 -12.3542
   -11.0365 -11.0149 -11.0099 -10.9772 -10.9303 -10.9049 -10.8942 -10.8732
   -10.8355 -10.8322 -10.8273 -10.8158 -10.0689 -10.0644 -10.0553 -10.0512
    -9.2240  -9.2062  -9.2017  -9.1850  -8.7171  -8.7120  -8.7029  -8.6995
    -8.6198  -8.6153  -8.6092  -8.5953  -8.5073  -8.4913  -8.4631  -8.4596
    -8.0140  -8.0058  -7.9914  -7.9882  -7.9011  -7.8867  -7.8353  -7.7945
    -7.5991  -7.5931  -7.5287  -7.5174  -7.3760  -7.3652  -7.2796  -7.2597
    -6.8974  -6.8892  -6.7924  -6.7842  -6.5344  -6.5277  -6.5266  -6.5226
    -6.3796  -6.3747  -6.3613  -6.3559  -6.1421  -6.1315  -6.1256  -6.1103
    -5.9867  -5.9532  -5.9516  -5.9134  -5.6431  -5.6141  -5.5950  -5.5389
    -5.5344  -5.5149  -5.5061  -5.4685  -5.4600  -5.3921  -5.3596  -5.3521
    -5.3242  -5.2758  -5.2732  -5.2685  -5.1753  -5.1539  -5.1521  -5.1429
    -4.5583  -4.5408  -4.5387  -4.5013  -4.4921  -4.4664  -4.4327  -4.4188
    -4.2619  -4.2577  -4.2510  -4.2462  -4.2374  -4.2102  -4.1644  -4.1295
    -4.0621  -4.0092  -3.9723  -3.9307  -3.9227  -3.9050  -3.8926  -3.8777
    -3.8620  -3.8588  -3.8424  -3.8328  -3.6718  -3.6565  -3.6254  -3.5975
    -3.3325  -3.2863  -3.2465  -3.2365  -3.2334  -3.1702  -3.1573  -3.1472
    -3.1268  -3.1124  -2.8840  -2.8771  -2.8577  -2.8560  -2.8389  -2.8074
    -2.7902  -2.7684  -2.7507  -2.7048  -2.6829  -2.6788  -2.6725  -2.6529
    -2.5637  -2.5546  -2.5246  -2.5158  -2.2213  -2.1929  -2.0420  -2.0093
    -1.9948  -1.9867  -1.9719  -1.9550  -1.8249  -1.8153  -1.7968  -1.7718
    -1.6787  -1.6703  -1.6425  -1.6368  -1.6319  -1.6073  -1.5558  -1.5328
    -1.4867  -1.4703  -1.2337  -1.2084  -1.1951  -1.1438  -1.1388  -1.1077
    -0.9764  -0.9268  -0.9124  -0.9001  -0.8858  -0.8723  -0.8444  -0.8216
    -0.7102  -0.6448  -0.5142  -0.4932  -0.4903  -0.4877  -0.4437  -0.4237
    -0.3483  -0.3349  -0.2943  -0.2732  -0.2093  -0.1606  -0.0966  -0.0861
     0.2231   0.2461   0.2566   0.2627   0.3620   0.4219   0.4281   0.4618
     0.5925   0.6623   0.6779   0.6930   0.7001   0.7222   0.8079   0.8380
     0.9121   0.9699   1.0146   1.0162   1.0700   1.0786   1.1034   1.1150
     3.4022   3.4190   3.4550   3.4645   4.1928   4.1998

     highest occupied, lowest unoccupied level (ev):     1.1150    3.4022

!    total energy              =   -1650.87590008 Ry
     estimated scf accuracy    <       0.00033184 Ry

     convergence has been achieved in  10 iterations

     Using ACE for calculation of exact exchange

     EXX grid:   289181 G-vectors     FFT dimensions: ( 144,  48, 216)
     ACE projected onto   286 (nbndproj) and applied to   286 (nbnd) bands

     EXX: now go back to refine exchange calculation

     total cpu time spent up to now is      233.8 secs

     per-process dynamical memory:   183.4 Mb

     Self-consistent Calculation

     iteration #  1     ecut=   100.00 Ry     beta= 0.70
     Davidson diagonalization with overlap
     ethr =  1.82E-07,  avg # of iterations =  8.0

     total cpu time spent up to now is      246.5 secs

     total energy              =   -1650.51655300 Ry
     estimated scf accuracy    <       0.03090362 Ry

     iteration #  2     ecut=   100.00 Ry     beta= 0.70
     Davidson diagonalization with overlap
     ethr =  5.52E-06,  avg # of iterations =  2.0

     total cpu time spent up to now is      251.0 secs

     total energy              =   -1650.51591761 Ry
     estimated scf accuracy    <       0.00591787 Ry

     iteration #  3     ecut=   100.00 Ry     beta= 0.70
     Davidson diagonalization with overlap
     ethr =  1.06E-06,  avg # of iterations =  2.0

     total cpu time spent up to now is      256.4 secs

     total energy              =   -1650.51649335 Ry
     estimated scf accuracy    <       0.00103647 Ry

     iteration #  4     ecut=   100.00 Ry     beta= 0.70
     Davidson diagonalization with overlap
     ethr =  1.85E-07,  avg # of iterations =  2.0

     total cpu time spent up to now is      260.7 secs

     End of self-consistent calculation

          k = 0.0000 0.0000 0.0000 (102219 PWs)   bands (ev):

   -25.2258 -25.2131 -25.1938 -25.1813 -24.9355 -24.9320 -24.9271 -24.9250
   -21.9748 -21.9740 -21.9678 -21.9617 -20.8355 -20.8332 -20.8283 -20.8254
   -19.7776 -19.7731 -19.7673 -19.7645 -19.7567 -19.7533 -19.7391 -19.7354
   -19.2511 -19.2423 -19.2415 -19.2319 -17.0953 -17.0885 -17.0861 -17.0810
   -16.3908 -16.3837 -16.3751 -16.3675 -15.7459 -15.7409 -15.7337 -15.7316
   -15.6931 -15.6897 -15.6819 -15.6790 -15.6312 -15.6141 -15.6065 -15.5922
   -15.2185 -15.1988 -15.1919 -15.1678 -15.0618 -15.0472 -15.0387 -15.0197
   -13.4985 -13.4772 -13.4679 -13.4387 -13.3695 -13.3461 -13.3312 -13.3085
   -13.2643 -13.2557 -13.2522 -13.2346 -12.4274 -12.4225 -12.4133 -12.4090
   -11.4896 -11.4708 -11.4632 -11.4458 -10.9725 -10.9690 -10.9592 -10.9557
   -10.8378 -10.8298 -10.8246 -10.8125 -10.6905 -10.6788 -10.6491 -10.6441
   -10.1554 -10.1494 -10.1398 -10.1336  -9.9796  -9.9556  -9.9168  -9.8709
    -9.6348  -9.6291  -9.5724  -9.5542  -9.3457  -9.3208  -9.2390  -9.2109
    -8.8906  -8.8804  -8.7689  -8.7607  -8.5252  -8.5177  -8.5120  -8.5099
    -8.3342  -8.3238  -8.3193  -8.3104  -8.0341  -8.0236  -8.0182  -8.0008
    -7.8856  -7.8489  -7.8382  -7.7920  -7.5832  -7.5478  -7.5284  -7.4756
    -7.4620  -7.4440  -7.4212  -7.3762  -7.3691  -7.3035  -7.2303  -7.2076
    -7.1915  -7.1780  -7.1058  -7.0975  -6.9924  -6.9693  -6.9619  -6.9523
    -6.3273  -6.3171  -6.2938  -6.2789  -6.2486  -6.1901  -6.1844  -6.1759
    -6.0752  -6.0490  -5.9383  -5.9314  -5.9197  -5.9024  -5.8267  -5.8059
    -5.7861  -5.7697  -5.7491  -5.6895  -5.6878  -5.6556  -5.6048  -5.5896
    -5.5836  -5.5546  -5.5007  -5.4672  -5.4189  -5.3970  -5.3212  -5.2869
    -4.9575  -4.9091  -4.8838  -4.8771  -4.8641  -4.8012  -4.7712  -4.7548
    -4.7111  -4.6820  -4.4902  -4.4859  -4.4650  -4.4580  -4.4358  -4.4177
    -4.3772  -4.3695  -4.3169  -4.2694  -4.2466  -4.2143  -4.1955  -4.1877
    -4.0808  -4.0688  -4.0487  -4.0408  -3.8078  -3.7645  -3.5866  -3.5804
    -3.5361  -3.5097  -3.4889  -3.4854  -3.2868  -3.2582  -3.2544  -3.2456
    -3.1778  -3.1721  -3.1607  -3.1562  -3.1151  -3.0908  -3.0175  -3.0000
    -2.9870  -2.9811  -2.6927  -2.6783  -2.5911  -2.5430  -2.5248  -2.4923
    -2.4084  -2.3834  -2.3146  -2.2937  -2.2292  -2.2072  -2.1874  -2.1317
    -1.9889  -1.8830  -1.8767  -1.8597  -1.8183  -1.7511  -1.7306  -1.7072
    -1.6207  -1.5956  -1.5835  -1.4902  -1.4878  -1.4254  -1.4073  -1.3803
    -0.9449  -0.9273  -0.9084  -0.8955  -0.8933  -0.8414  -0.7715  -0.7361
    -0.6677  -0.6140  -0.5881  -0.5769  -0.5362  -0.4398  -0.4205  -0.4057
    -0.3848  -0.3786  -0.2701  -0.2586  -0.0599  -0.0256   0.0026   0.0043
     4.0357   4.0526   4.0909   4.1003   4.9866   4.9918

     highest occupied, lowest unoccupied level (ev):     0.0043    4.0357

!    total energy              =   -1650.51608845 Ry
     estimated scf accuracy    <       0.00047892 Ry

     convergence has been achieved in   4 iterations

     Using ACE for calculation of exact exchange
     ACE projected onto   286 (nbndproj) and applied to   286 (nbnd) bands

     total energy              =   -1650.52949712 Ry
     Harris-Foulkes estimate   =   -1650.52995298 Ry
     est. exchange err (dexx)  =       0.01340867 Ry
     - averaged Fock potential =     230.98485692 Ry
     + Fock energy (ACE)       =    -115.56958810 Ry

     scf convergence threshold =          1.3E-03 Ry

     EXX: now go back to refine exchange calculation

     total cpu time spent up to now is      419.2 secs

     per-process dynamical memory:   187.6 Mb

     Self-consistent Calculation

     iteration #  1     ecut=   100.00 Ry     beta= 0.70
     Davidson diagonalization with overlap
     ethr =  1.85E-07,  avg # of iterations =  6.0

     total cpu time spent up to now is      427.8 secs

     total energy              =   -1650.53211994 Ry
     estimated scf accuracy    <       0.00152967 Ry

     iteration #  2     ecut=   100.00 Ry     beta= 0.70
     Davidson diagonalization with overlap
     ethr =  2.73E-07,  avg # of iterations =  1.0

     total cpu time spent up to now is      431.4 secs

     End of self-consistent calculation

          k = 0.0000 0.0000 0.0000 (102219 PWs)   bands (ev):

   -25.1155 -25.1002 -25.0838 -25.0685 -24.8600 -24.8556 -24.8516 -24.8447
   -21.9731 -21.9668 -21.9609 -21.9589 -20.8909 -20.8888 -20.8784 -20.8764
   -19.7809 -19.7769 -19.7700 -19.7670 -19.7596 -19.7563 -19.7530 -19.7500
   -19.3037 -19.2946 -19.2935 -19.2849 -17.0974 -17.0924 -17.0895 -17.0824
   -16.4204 -16.4127 -16.4038 -16.3957 -15.7212 -15.7136 -15.7103 -15.7079
   -15.6720 -15.6709 -15.6581 -15.6509 -15.6477 -15.6286 -15.6269 -15.6109
   -15.2749 -15.2586 -15.2422 -15.2211 -15.0894 -15.0782 -15.0736 -15.0578
   -13.4554 -13.4311 -13.4277 -13.3981 -13.3363 -13.3332 -13.2919 -13.2857
   -13.2754 -13.2546 -13.2422 -13.2218 -12.4363 -12.4311 -12.4225 -12.4179
   -11.5044 -11.4860 -11.4796 -11.4626 -10.9541 -10.9516 -10.9410 -10.9366
   -10.8355 -10.8304 -10.8216 -10.8084 -10.7151 -10.6986 -10.6694 -10.6651
   -10.1939 -10.1867 -10.1790 -10.1690  -9.9628  -9.9404  -9.9055  -9.8653
    -9.6105  -9.6048  -9.5353  -9.5220  -9.3503  -9.3320  -9.2427  -9.2178
    -8.8875  -8.8754  -8.7715  -8.7632  -8.5201  -8.5108  -8.5047  -8.5014
    -8.3288  -8.3153  -8.3141  -8.3022  -8.0504  -8.0385  -8.0375  -8.0194
    -7.8842  -7.8490  -7.8393  -7.7936  -7.5155  -7.4882  -7.4710  -7.4202
    -7.4186  -7.3998  -7.3855  -7.3568  -7.3214  -7.2562  -7.2171  -7.2119
    -7.1894  -7.1346  -7.1323  -7.1168  -6.9856  -6.9660  -6.9587  -6.9419
    -6.3456  -6.3380  -6.3143  -6.2958  -6.2663  -6.2165  -6.2134  -6.2082
    -6.0298  -6.0125  -5.9218  -5.9180  -5.9017  -5.8909  -5.8188  -5.7835
    -5.7690  -5.7617  -5.7377  -5.6561  -5.6557  -5.6162  -5.6063  -5.5930
    -5.5779  -5.5383  -5.5227  -5.4815  -5.3733  -5.3502  -5.3321  -5.2970
    -4.9985  -4.9497  -4.9236  -4.9042  -4.9009  -4.8312  -4.7849  -4.7736
    -4.7495  -4.7228  -4.4972  -4.4967  -4.4800  -4.4644  -4.4469  -4.4443
    -4.3800  -4.3739  -4.3699  -4.3100  -4.2943  -4.2590  -4.2411  -4.2228
    -4.1104  -4.0916  -4.0867  -4.0696  -3.7526  -3.7205  -3.5660  -3.5553
    -3.5249  -3.5028  -3.4804  -3.4678  -3.2762  -3.2538  -3.2270  -3.2237
    -3.1556  -3.1411  -3.1374  -3.1234  -3.0905  -3.0537  -2.9761  -2.9624
    -2.9448  -2.9377  -2.6599  -2.6475  -2.5636  -2.5232  -2.4968  -2.4607
    -2.3924  -2.3780  -2.3049  -2.2989  -2.2288  -2.2152  -2.2104  -2.1460
    -2.0026  -1.9002  -1.8792  -1.8749  -1.8261  -1.7766  -1.7676  -1.7262
    -1.6635  -1.6404  -1.6153  -1.5335  -1.5248  -1.4643  -1.4584  -1.4292
    -0.9369  -0.9297  -0.9179  -0.8927  -0.8850  -0.8514  -0.7812  -0.7452
    -0.6737  -0.6368  -0.5928  -0.5840  -0.5502  -0.4468  -0.4053  -0.4018
    -0.3828  -0.3640  -0.2786  -0.2617  -0.1084  -0.0809  -0.0424  -0.0292
     4.0544   4.0708   4.1060   4.1157   4.9839   4.9874

     highest occupied, lowest unoccupied level (ev):    -0.0292    4.0544

!    total energy              =   -1650.53150626 Ry
     estimated scf accuracy    <       0.00071469 Ry

     convergence has been achieved in   2 iterations

     Using ACE for calculation of exact exchange
     ACE projected onto   286 (nbndproj) and applied to   286 (nbnd) bands

     total energy              =   -1650.53216718 Ry
     Harris-Foulkes estimate   =   -1650.53282886 Ry
     est. exchange err (dexx)  =       0.00066092 Ry
     - averaged Fock potential =     231.16959933 Ry
     + Fock energy (ACE)       =    -115.60067215 Ry

     scf convergence threshold =          6.6E-05 Ry

     EXX: now go back to refine exchange calculation

     total cpu time spent up to now is      586.0 secs

     per-process dynamical memory:   186.8 Mb

     Self-consistent Calculation

     iteration #  1     ecut=   100.00 Ry     beta= 0.70
     Davidson diagonalization with overlap
     ethr =  2.73E-07,  avg # of iterations =  5.0

     total cpu time spent up to now is      593.4 secs

     total energy              =   -1650.53291980 Ry
     estimated scf accuracy    <       0.00208083 Ry

     iteration #  2     ecut=   100.00 Ry     beta= 0.70
     Davidson diagonalization with overlap
     ethr =  3.72E-07,  avg # of iterations =  2.0

     total cpu time spent up to now is      597.5 secs

     total energy              =   -1650.53257372 Ry
     estimated scf accuracy    <       0.00121243 Ry

     iteration #  3     ecut=   100.00 Ry     beta= 0.70
     Davidson diagonalization with overlap
     ethr =  2.17E-07,  avg # of iterations =  3.0

     total cpu time spent up to now is      602.2 secs

     total energy              =   -1650.53263146 Ry
     estimated scf accuracy    <       0.00029544 Ry

     iteration #  4     ecut=   100.00 Ry     beta= 0.70
     Davidson diagonalization with overlap
     ethr =  5.28E-08,  avg # of iterations =  2.0

     total cpu time spent up to now is      606.5 secs

     total energy              =   -1650.53260341 Ry
     estimated scf accuracy    <       0.00012822 Ry

     iteration #  5     ecut=   100.00 Ry     beta= 0.70
     Davidson diagonalization with overlap
     ethr =  2.29E-08,  avg # of iterations =  4.0

     total cpu time spent up to now is      611.5 secs

     End of self-consistent calculation

          k = 0.0000 0.0000 0.0000 (102219 PWs)   bands (ev):

   -25.1694 -25.1573 -25.1376 -25.1255 -24.8992 -24.8966 -24.8904 -24.8889
   -21.9601 -21.9578 -21.9546 -21.9508 -20.8503 -20.8481 -20.8420 -20.8399
   -19.7802 -19.7783 -19.7721 -19.7691 -19.7644 -19.7597 -19.7548 -19.7500
   -19.2651 -19.2567 -19.2564 -19.2479 -17.0947 -17.0893 -17.0865 -17.0820
   -16.4080 -16.4004 -16.3921 -16.3841 -15.7375 -15.7280 -15.7245 -15.7200
   -15.6915 -15.6906 -15.6783 -15.6726 -15.6403 -15.6228 -15.6178 -15.6033
   -15.2349 -15.2166 -15.2066 -15.1835 -15.0701 -15.0565 -15.0499 -15.0318
   -13.4810 -13.4574 -13.4528 -13.4216 -13.3571 -13.3423 -13.3137 -13.3001
   -13.2691 -13.2549 -13.2544 -13.2320 -12.4330 -12.4283 -12.4192 -12.4151
   -11.4989 -11.4803 -11.4732 -11.4560 -10.9654 -10.9622 -10.9527 -10.9492
   -10.8464 -10.8393 -10.8324 -10.8193 -10.6973 -10.6853 -10.6545 -10.6509
   -10.1636 -10.1594 -10.1502 -10.1434  -9.9753  -9.9530  -9.9146  -9.8715
    -9.6199  -9.6148  -9.5543  -9.5378  -9.3440  -9.3203  -9.2378  -9.2101
    -8.8843  -8.8738  -8.7650  -8.7571  -8.5246  -8.5153  -8.5115  -8.5079
    -8.3374  -8.3258  -8.3220  -8.3121  -8.0419  -8.0305  -8.0281  -8.0102
    -7.8846  -7.8488  -7.8368  -7.7916  -7.5510  -7.5103  -7.5096  -7.4473
    -7.4368  -7.4193  -7.4065  -7.3602  -7.3524  -7.2797  -7.2130  -7.2099
    -7.1979  -7.1581  -7.1134  -7.1042  -6.9968  -6.9758  -6.9677  -6.9555
    -6.3313  -6.3223  -6.2974  -6.2802  -6.2529  -6.1955  -6.1907  -6.1831
    -6.0544  -6.0304  -5.9285  -5.9232  -5.9100  -5.8946  -5.8253  -5.7963
    -5.7754  -5.7677  -5.7464  -5.6777  -5.6746  -5.6378  -5.6001  -5.5870
    -5.5825  -5.5521  -5.4993  -5.4662  -5.3986  -5.3776  -5.3186  -5.2860
    -4.9693  -4.9203  -4.8971  -4.8850  -4.8770  -4.8104  -4.7697  -4.7552
    -4.7234  -4.6930  -4.4987  -4.4926  -4.4742  -4.4657  -4.4446  -4.4297
    -4.3855  -4.3779  -4.3328  -4.2844  -4.2602  -4.2294  -4.2091  -4.1988
    -4.0898  -4.0780  -4.0616  -4.0514  -3.7860  -3.7494  -3.5838  -3.5748
    -3.5366  -3.5141  -3.4935  -3.4855  -3.2889  -3.2624  -3.2398  -3.2353
    -3.1732  -3.1645  -3.1530  -3.1447  -3.1126  -3.0805  -3.0004  -2.9857
    -2.9738  -2.9699  -2.6841  -2.6712  -2.5786  -2.5358  -2.5114  -2.4774
    -2.4030  -2.3837  -2.3126  -2.2998  -2.2345  -2.2098  -2.1998  -2.1354
    -1.9950  -1.8918  -1.8892  -1.8721  -1.8286  -1.7682  -1.7437  -1.7211
    -1.6369  -1.6040  -1.5951  -1.5076  -1.5017  -1.4427  -1.4176  -1.3932
    -0.9406  -0.9219  -0.9167  -0.8926  -0.8906  -0.8477  -0.7777  -0.7411
    -0.6733  -0.6261  -0.5928  -0.5854  -0.5476  -0.4507  -0.4138  -0.4069
    -0.3878  -0.3726  -0.2830  -0.2695  -0.0844  -0.0533  -0.0223  -0.0179
     4.0733   4.0893   4.1245   4.1337   4.9995   5.0020

     highest occupied, lowest unoccupied level (ev):    -0.0179    4.0733

!    total energy              =   -1650.53258409 Ry
     estimated scf accuracy    <       0.00004469 Ry

     convergence has been achieved in   5 iterations

     Using ACE for calculation of exact exchange
     ACE projected onto   286 (nbndproj) and applied to   286 (nbnd) bands

     total energy              =   -1650.53265285 Ry
     Harris-Foulkes estimate   =   -1650.53269389 Ry
     est. exchange err (dexx)  =       0.00006876 Ry
     - averaged Fock potential =     231.20921861 Ry
     + Fock energy (ACE)       =    -115.60861522 Ry

     scf convergence threshold =          6.9E-06 Ry

     EXX: now go back to refine exchange calculation

     total cpu time spent up to now is      763.8 secs

     per-process dynamical memory:   188.4 Mb

     Self-consistent Calculation

     iteration #  1     ecut=   100.00 Ry     beta= 0.70
     Davidson diagonalization with overlap
     ethr =  2.29E-08,  avg # of iterations =  5.0

     total cpu time spent up to now is      771.0 secs

     total energy              =   -1650.53269574 Ry
     estimated scf accuracy    <       0.00008785 Ry

     iteration #  2     ecut=   100.00 Ry     beta= 0.70
     Davidson diagonalization with overlap
     ethr =  1.57E-08,  avg # of iterations =  1.0

     total cpu time spent up to now is      774.8 secs

     total energy              =   -1650.53268066 Ry
     estimated scf accuracy    <       0.00005068 Ry

     iteration #  3     ecut=   100.00 Ry     beta= 0.70
     Davidson diagonalization with overlap
     ethr =  9.05E-09,  avg # of iterations =  3.0

     total cpu time spent up to now is      779.8 secs

     total energy              =   -1650.53268354 Ry
     estimated scf accuracy    <       0.00001333 Ry

     iteration #  4     ecut=   100.00 Ry     beta= 0.70
     Davidson diagonalization with overlap
     ethr =  2.38E-09,  avg # of iterations =  2.0

     total cpu time spent up to now is      783.6 secs

     End of self-consistent calculation

          k = 0.0000 0.0000 0.0000 (102219 PWs)   bands (ev):

   -25.1529 -25.1450 -25.1212 -25.1133 -24.8834 -24.8818 -24.8776 -24.8757
   -21.9734 -21.9707 -21.9690 -21.9667 -20.8599 -20.8577 -20.8538 -20.8514
   -19.7781 -19.7752 -19.7682 -19.7657 -19.7623 -19.7579 -19.7531 -19.7493
   -19.2771 -19.2703 -19.2688 -19.2620 -17.0945 -17.0915 -17.0882 -17.0851
   -16.4112 -16.4036 -16.3961 -16.3881 -15.7317 -15.7222 -15.7196 -15.7166
   -15.6842 -15.6835 -15.6709 -15.6656 -15.6452 -15.6262 -15.6230 -15.6074
   -15.2488 -15.2322 -15.2194 -15.1974 -15.0776 -15.0650 -15.0597 -15.0424
   -13.4704 -13.4474 -13.4424 -13.4121 -13.3490 -13.3388 -13.3026 -13.2960
   -13.2736 -13.2559 -13.2524 -13.2295 -12.4359 -12.4312 -12.4221 -12.4181
   -11.5019 -11.4836 -11.4763 -11.4594 -10.9588 -10.9565 -10.9488 -10.9451
   -10.8408 -10.8345 -10.8284 -10.8148 -10.7046 -10.6915 -10.6602 -10.6579
   -10.1743 -10.1706 -10.1610 -10.1538  -9.9699  -9.9473  -9.9103  -9.8682
    -9.6155  -9.6108  -9.5473  -9.5323  -9.3456  -9.3242  -9.2386  -9.2120
    -8.8887  -8.8777  -8.7707  -8.7628  -8.5220  -8.5123  -8.5081  -8.5047
    -8.3333  -8.3207  -8.3182  -8.3074  -8.0441  -8.0330  -8.0306  -8.0129
    -7.8856  -7.8501  -7.8388  -7.7932  -7.5391  -7.5023  -7.4979  -7.4391
    -7.4293  -7.4109  -7.4035  -7.3588  -7.3441  -7.2701  -7.2156  -7.2038
    -7.2020  -7.1504  -7.1192  -7.1085  -6.9916  -6.9706  -6.9633  -6.9497
    -6.3366  -6.3275  -6.3040  -6.2841  -6.2584  -6.2007  -6.1973  -6.1912
    -6.0480  -6.0270  -5.9236  -5.9202  -5.9056  -5.8924  -5.8226  -5.7934
    -5.7765  -5.7655  -5.7437  -5.6700  -5.6689  -5.6325  -5.6039  -5.5908
    -5.5806  -5.5470  -5.5099  -5.4739  -5.3928  -5.3717  -5.3262  -5.2919
    -4.9801  -4.9317  -4.9056  -4.8943  -4.8853  -4.8210  -4.7765  -4.7639
    -4.7345  -4.7059  -4.4977  -4.4923  -4.4762  -4.4640  -4.4469  -4.4346
    -4.3831  -4.3777  -4.3462  -4.2940  -4.2727  -4.2434  -4.2215  -4.2087
    -4.0954  -4.0831  -4.0714  -4.0589  -3.7738  -3.7392  -3.5752  -3.5663
    -3.5301  -3.5085  -3.4867  -3.4777  -3.2832  -3.2573  -3.2351  -3.2321
    -3.1652  -3.1567  -3.1473  -3.1378  -3.1034  -3.0704  -2.9920  -2.9776
    -2.9628  -2.9599  -2.6737  -2.6614  -2.5715  -2.5314  -2.5044  -2.4697
    -2.3995  -2.3842  -2.3107  -2.3025  -2.2336  -2.2107  -2.2056  -2.1394
    -1.9982  -1.8941  -1.8866  -1.8745  -1.8286  -1.7715  -1.7515  -1.7229
    -1.6475  -1.6169  -1.6030  -1.5184  -1.5103  -1.4518  -1.4325  -1.4076
    -0.9428  -0.9254  -0.9245  -0.8960  -0.8927  -0.8539  -0.7839  -0.7482
    -0.6786  -0.6352  -0.5938  -0.5918  -0.5526  -0.4514  -0.4110  -0.4067
    -0.3872  -0.3709  -0.2824  -0.2679  -0.0948  -0.0649  -0.0318  -0.0240
     4.0673   4.0831   4.1181   4.1272   4.9952   4.9989

     highest occupied, lowest unoccupied level (ev):    -0.0240    4.0673

!    total energy              =   -1650.53267778 Ry
     estimated scf accuracy    <       0.00000673 Ry

     convergence has been achieved in   4 iterations

     Using ACE for calculation of exact exchange
     ACE projected onto   286 (nbndproj) and applied to   286 (nbnd) bands

     total energy              =   -1650.53268477 Ry
     Harris-Foulkes estimate   =   -1650.53269118 Ry
     est. exchange err (dexx)  =       0.00000698 Ry
     - averaged Fock potential =     231.21979588 Ry
     + Fock energy (ACE)       =    -115.61118764 Ry

     scf convergence threshold =          7.0E-07 Ry

     EXX: now go back to refine exchange calculation

     total cpu time spent up to now is      936.9 secs

     per-process dynamical memory:   187.8 Mb

     Self-consistent Calculation

     iteration #  1     ecut=   100.00 Ry     beta= 0.70
     Davidson diagonalization with overlap
     ethr =  2.38E-09,  avg # of iterations =  5.0

     total cpu time spent up to now is      944.2 secs

     total energy              =   -1650.53269128 Ry
     estimated scf accuracy    <       0.00001424 Ry

     iteration #  2     ecut=   100.00 Ry     beta= 0.70
     Davidson diagonalization with overlap
     ethr =  2.54E-09,  avg # of iterations =  1.0

     total cpu time spent up to now is      948.0 secs

     total energy              =   -1650.53268936 Ry
     estimated scf accuracy    <       0.00000924 Ry

     iteration #  3     ecut=   100.00 Ry     beta= 0.70
     Davidson diagonalization with overlap
     ethr =  1.65E-09,  avg # of iterations =  2.0

     total cpu time spent up to now is      952.5 secs

     total energy              =   -1650.53268914 Ry
     estimated scf accuracy    <       0.00000371 Ry

     iteration #  4     ecut=   100.00 Ry     beta= 0.70
     Davidson diagonalization with overlap
     ethr =  6.63E-10,  avg # of iterations =  2.0

     total cpu time spent up to now is      956.7 secs

     total energy              =   -1650.53268865 Ry
     estimated scf accuracy    <       0.00000195 Ry

     iteration #  5     ecut=   100.00 Ry     beta= 0.70
     Davidson diagonalization with overlap
     ethr =  3.49E-10,  avg # of iterations =  4.0

     total cpu time spent up to now is      961.6 secs

     total energy              =   -1650.53268862 Ry
     estimated scf accuracy    <       0.00000080 Ry

     iteration #  6     ecut=   100.00 Ry     beta= 0.70
     Davidson diagonalization with overlap
     ethr =  1.44E-10,  avg # of iterations =  2.0

     total cpu time spent up to now is      965.7 secs

     End of self-consistent calculation

          k = 0.0000 0.0000 0.0000 (102219 PWs)   bands (ev):

   -25.1529 -25.1499 -25.1212 -25.1182 -24.8828 -24.8816 -24.8801 -24.8789
   -21.9671 -21.9660 -21.9652 -21.9641 -20.8556 -20.8534 -20.8531 -20.8509
   -19.7778 -19.7759 -19.7690 -19.7667 -19.7653 -19.7606 -19.7528 -19.7506
   -19.2730 -19.2682 -19.2647 -19.2599 -17.0931 -17.0917 -17.0875 -17.0862
   -16.4096 -16.4025 -16.3951 -16.3874 -15.7326 -15.7229 -15.7205 -15.7180
   -15.6854 -15.6849 -15.6726 -15.6678 -15.6444 -15.6257 -15.6218 -15.6066
   -15.2453 -15.2291 -15.2163 -15.1945 -15.0759 -15.0631 -15.0576 -15.0402
   -13.4722 -13.4498 -13.4441 -13.4141 -13.3503 -13.3391 -13.3045 -13.2965
   -13.2723 -13.2552 -13.2525 -13.2295 -12.4350 -12.4304 -12.4213 -12.4172
   -11.5011 -11.4828 -11.4755 -11.4586 -10.9601 -10.9577 -10.9518 -10.9479
   -10.8411 -10.8342 -10.8300 -10.8159 -10.7029 -10.6902 -10.6586 -10.6567
   -10.1710 -10.1688 -10.1582 -10.1520  -9.9703  -9.9479  -9.9105  -9.8683
    -9.6162  -9.6115  -9.5485  -9.5332  -9.3445  -9.3229  -9.2377  -9.2110
    -8.8873  -8.8765  -8.7692  -8.7613  -8.5227  -8.5131  -8.5089  -8.5058
    -8.3342  -8.3218  -8.3193  -8.3088  -8.0429  -8.0324  -8.0295  -8.0123
    -7.8853  -7.8497  -7.8384  -7.7927  -7.5406  -7.5030  -7.4999  -7.4403
    -7.4299  -7.4128  -7.4037  -7.3589  -7.3457  -7.2712  -7.2154  -7.2045
    -7.2015  -7.1519  -7.1183  -7.1082  -6.9921  -6.9709  -6.9644  -6.9509
    -6.3351  -6.3268  -6.3021  -6.2834  -6.2573  -6.1998  -6.1948  -6.1900
    -6.0491  -6.0276  -5.9249  -5.9213  -5.9075  -5.8934  -5.8225  -5.7929
    -5.7753  -5.7652  -5.7437  -5.6707  -5.6695  -5.6331  -5.6030  -5.5898
    -5.5802  -5.5474  -5.5071  -5.4720  -5.3934  -5.3728  -5.3239  -5.2902
    -4.9779  -4.9293  -4.9039  -4.8919  -4.8842  -4.8184  -4.7746  -4.7618
    -4.7318  -4.7030  -4.4979  -4.4926  -4.4767  -4.4645  -4.4470  -4.4340
    -4.3833  -4.3784  -4.3435  -4.2922  -4.2701  -4.2397  -4.2192  -4.2064
    -4.0935  -4.0821  -4.0686  -4.0576  -3.7758  -3.7413  -3.5767  -3.5687
    -3.5322  -3.5099  -3.4884  -3.4796  -3.2848  -3.2592  -3.2355  -3.2329
    -3.1666  -3.1585  -3.1484  -3.1391  -3.1046  -3.0719  -2.9927  -2.9784
    -2.9638  -2.9620  -2.6748  -2.6631  -2.5731  -2.5323  -2.5063  -2.4718
    -2.4006  -2.3842  -2.3111  -2.3022  -2.2340  -2.2099  -2.2046  -2.1381
    -1.9971  -1.8930  -1.8870  -1.8744  -1.8285  -1.7710  -1.7502  -1.7234
    -1.6453  -1.6139  -1.6017  -1.5163  -1.5088  -1.4504  -1.4289  -1.4047
    -0.9425  -0.9240  -0.9232  -0.8951  -0.8925  -0.8527  -0.7826  -0.7466
    -0.6771  -0.6331  -0.5920  -0.5913  -0.5519  -0.4512  -0.4121  -0.4076
    -0.3878  -0.3724  -0.2822  -0.2684  -0.0930  -0.0627  -0.0303  -0.0230
     4.0697   4.0855   4.1205   4.1295   4.9980   4.9995

     highest occupied, lowest unoccupied level (ev):    -0.0230    4.0697

!    total energy              =   -1650.53268830 Ry
     estimated scf accuracy    <       0.00000038 Ry

     convergence has been achieved in   6 iterations

     Using ACE for calculation of exact exchange
     ACE projected onto   286 (nbndproj) and applied to   286 (nbnd) bands

     total energy              =   -1650.53268907 Ry
     Harris-Foulkes estimate   =   -1650.53268944 Ry
     est. exchange err (dexx)  =       0.00000076 Ry
     - averaged Fock potential =     231.22285179 Ry
     + Fock energy (ACE)       =    -115.61166491 Ry

     scf convergence threshold =          1.0E-07 Ry

     EXX: now go back to refine exchange calculation

     total cpu time spent up to now is     1119.3 secs

     per-process dynamical memory:   188.9 Mb

     Self-consistent Calculation

     iteration #  1     ecut=   100.00 Ry     beta= 0.70
     Davidson diagonalization with overlap
     ethr =  1.44E-10,  avg # of iterations =  5.0

     total cpu time spent up to now is     1126.7 secs

     total energy              =   -1650.53268953 Ry
     estimated scf accuracy    <       0.00000089 Ry

     iteration #  2     ecut=   100.00 Ry     beta= 0.70
     Davidson diagonalization with overlap
     ethr =  1.59E-10,  avg # of iterations =  1.0

     total cpu time spent up to now is     1130.5 secs

     total energy              =   -1650.53268943 Ry
     estimated scf accuracy    <       0.00000055 Ry

     iteration #  3     ecut=   100.00 Ry     beta= 0.70
     Davidson diagonalization with overlap
     ethr =  9.91E-11,  avg # of iterations =  2.0

     total cpu time spent up to now is     1134.7 secs

     total energy              =   -1650.53268941 Ry
     estimated scf accuracy    <       0.00000024 Ry

     iteration #  4     ecut=   100.00 Ry     beta= 0.70
     Davidson diagonalization with overlap
     ethr =  4.29E-11,  avg # of iterations =  2.0

     total cpu time spent up to now is     1138.9 secs

     total energy              =   -1650.53268939 Ry
     estimated scf accuracy    <       0.00000012 Ry

     iteration #  5     ecut=   100.00 Ry     beta= 0.70
     Davidson diagonalization with overlap
     ethr =  2.18E-11,  avg # of iterations =  3.0

     total cpu time spent up to now is     1143.4 secs

     End of self-consistent calculation

          k = 0.0000 0.0000 0.0000 (102219 PWs)   bands (ev):

   -25.1511 -25.1501 -25.1194 -25.1183 -24.8818 -24.8806 -24.8806 -24.8794
   -21.9667 -21.9662 -21.9653 -21.9648 -20.8552 -20.8541 -20.8531 -20.8520
   -19.7777 -19.7761 -19.7684 -19.7664 -19.7654 -19.7606 -19.7527 -19.7512
   -19.2730 -19.2687 -19.2647 -19.2604 -17.0927 -17.0916 -17.0871 -17.0863
   -16.4098 -16.4027 -16.3953 -16.3878 -15.7324 -15.7226 -15.7203 -15.7177
   -15.6852 -15.6849 -15.6725 -15.6677 -15.6444 -15.6257 -15.6219 -15.6067
   -15.2454 -15.2293 -15.2165 -15.1947 -15.0759 -15.0631 -15.0576 -15.0403
   -13.4718 -13.4494 -13.4439 -13.4138 -13.3501 -13.3390 -13.3042 -13.2964
   -13.2724 -13.2552 -13.2525 -13.2295 -12.4351 -12.4304 -12.4213 -12.4173
   -11.5012 -11.4828 -11.4756 -11.4587 -10.9597 -10.9572 -10.9517 -10.9477
   -10.8412 -10.8341 -10.8305 -10.8161 -10.7029 -10.6902 -10.6586 -10.6567
   -10.1709 -10.1691 -10.1583 -10.1521  -9.9703  -9.9479  -9.9105  -9.8683
    -9.6159  -9.6112  -9.5482  -9.5329  -9.3446  -9.3230  -9.2378  -9.2111
    -8.8872  -8.8763  -8.7691  -8.7612  -8.5226  -8.5130  -8.5089  -8.5057
    -8.3342  -8.3217  -8.3193  -8.3087  -8.0430  -8.0325  -8.0297  -8.0125
    -7.8852  -7.8496  -7.8383  -7.7927  -7.5402  -7.5030  -7.4994  -7.4399
    -7.4298  -7.4123  -7.4036  -7.3587  -7.3454  -7.2710  -7.2154  -7.2042
    -7.2016  -7.1516  -7.1184  -7.1082  -6.9922  -6.9710  -6.9647  -6.9510
    -6.3352  -6.3268  -6.3023  -6.2835  -6.2573  -6.1998  -6.1949  -6.1903
    -6.0487  -6.0273  -5.9246  -5.9211  -5.9073  -5.8932  -5.8225  -5.7929
    -5.7753  -5.7654  -5.7437  -5.6706  -5.6693  -5.6329  -5.6029  -5.5898
    -5.5803  -5.5475  -5.5072  -5.4722  -5.3931  -5.3725  -5.3240  -5.2903
    -4.9780  -4.9295  -4.9040  -4.8920  -4.8844  -4.8186  -4.7746  -4.7620
    -4.7319  -4.7032  -4.4980  -4.4926  -4.4767  -4.4646  -4.4471  -4.4341
    -4.3832  -4.3786  -4.3436  -4.2924  -4.2702  -4.2399  -4.2193  -4.2066
    -4.0937  -4.0824  -4.0688  -4.0578  -3.7754  -3.7410  -3.5766  -3.5685
    -3.5320  -3.5099  -3.4884  -3.4795  -3.2847  -3.2591  -3.2353  -3.2328
    -3.1664  -3.1582  -3.1482  -3.1388  -3.1046  -3.0718  -2.9925  -2.9782
    -2.9636  -2.9619  -2.6746  -2.6631  -2.5729  -2.5321  -2.5060  -2.4714
    -2.4004  -2.3840  -2.3108  -2.3021  -2.2339  -2.2100  -2.2047  -2.1383
    -1.9973  -1.8932  -1.8871  -1.8745  -1.8287  -1.7711  -1.7502  -1.7234
    -1.6455  -1.6141  -1.6018  -1.5164  -1.5089  -1.4504  -1.4291  -1.4049
    -0.9424  -0.9239  -0.9234  -0.8951  -0.8924  -0.8528  -0.7827  -0.7467
    -0.6773  -0.6333  -0.5920  -0.5916  -0.5520  -0.4513  -0.4119  -0.4075
    -0.3878  -0.3722  -0.2824  -0.2686  -0.0933  -0.0631  -0.0306  -0.0233
     4.0699   4.0856   4.1206   4.1295   4.9970   4.9995

     highest occupied, lowest unoccupied level (ev):    -0.0233    4.0699

!    total energy              =   -1650.53268934 Ry
     estimated scf accuracy    <       0.00000007 Ry

     convergence has been achieved in   5 iterations

     Using ACE for calculation of exact exchange
     ACE projected onto   286 (nbndproj) and applied to   286 (nbnd) bands

!!   total energy              =   -1650.53268942 Ry
     Harris-Foulkes estimate   =   -1650.53268948 Ry
     est. exchange err (dexx)  =       0.00000008 Ry
     - averaged Fock potential =     231.22344613 Ry
     + Fock energy (ACE)       =    -115.61178130 Ry

     EXX self-consistency reached

     Writing all to output data dir ./outdir/4amp15_pbe0.save/

     init_run     :      5.83s CPU      4.11s WALL (       1 calls)
     electrons    :    378.13s CPU    206.55s WALL (       7 calls)

     Called by init_run:
     aceinit0     :      0.00s CPU      0.00s WALL (       1 calls)
     wfcinit      :      2.39s CPU      1.45s WALL (       1 calls)
     potinit      :      1.57s CPU      0.82s WALL (       1 calls)
     hinit0       :      1.60s CPU      1.56s WALL (       1 calls)

     Called by electrons:
     c_bands      :    314.84s CPU    172.62s WALL (      36 calls)
     sum_band     :     40.40s CPU     21.48s WALL (      36 calls)
     v_of_rho     :      5.74s CPU      2.99s WALL (      38 calls)
     mix_rho      :     16.84s CPU      8.63s WALL (      36 calls)

     Called by c_bands:
     init_us_2    :      2.23s CPU      1.85s WALL (      73 calls)
     init_us_2:cp :      2.23s CPU      1.85s WALL (      73 calls)
     regterg      :    310.99s CPU    170.03s WALL (      36 calls)

     Called by *egterg:
     rdiaghg      :     16.51s CPU     10.40s WALL (     170 calls)
     h_psi        :    243.67s CPU    129.22s WALL (     177 calls)
     g_psi        :      1.24s CPU      0.88s WALL (     140 calls)

     Called by h_psi:
     h_psi:calbec :     25.77s CPU     14.31s WALL (     177 calls)
     vloc_psi     :    181.73s CPU     95.41s WALL (     177 calls)
     add_vuspsi   :     21.33s CPU     10.98s WALL (     177 calls)

     General routines
     calbec       :     33.74s CPU     18.83s WALL (     313 calls)
     fft          :      3.86s CPU      2.39s WALL (     295 calls)
     ffts         :     10.86s CPU      5.47s WALL (    1051 calls)
     fftw         :    194.51s CPU    102.25s WALL (   34266 calls)
     fftc         :   1666.94s CPU    839.54s WALL (  560560 calls)
     fftcw        :     10.05s CPU      5.67s WALL (    4004 calls)

     Parallel routines

     EXX routines
     exx_grid     :      0.00s CPU      0.00s WALL (       1 calls)
     exxinit      :      4.59s CPU      2.93s WALL (       7 calls)
     vexx         :   2131.59s CPU   1077.36s WALL (       7 calls)
     matcalc      :      8.01s CPU      4.54s WALL (     136 calls)
     aceupdate    :      0.43s CPU      0.23s WALL (       7 calls)
     vexxace      :     15.84s CPU      8.87s WALL (     116 calls)
     aceinit      :   2132.63s CPU   1077.95s WALL (       7 calls)

     PWSCF        :  42m 5.22s CPU  21m35.08s WALL


   This run was terminated on:  12:21:29   9Jan2024            

=------------------------------------------------------------------------------=
   JOB DONE.
=------------------------------------------------------------------------------=
