     Program PWSCF v.7.2 starts on  5Mar2024 at 14:17: 7

     This program is part of the open-source Quantum ESPRESSO suite
     for quantum simulation of materials; please cite
         "P. Giannozzi et al., J. Phys.:Condens. Matter 21 395502 (2009);
         "P. Giannozzi et al., J. Phys.:Condens. Matter 29 465901 (2017);
         "P. Giannozzi et al., J. Chem. Phys. 152 154105 (2020);
          URL http://www.quantum-espresso.org",
     in publications or presentations arising from this work. More details at
     http://www.quantum-espresso.org/quote

     Parallel version (MPI), running on   120 processors

     MPI processes distributed on     1 nodes
     451901 MiB available memory on the printing compute node when the environment starts

     Reading input from 4amp34_scf.in

     Current dimensions of program PWSCF are:
     Max number of different atomic species (ntypx) = 10
     Max number of k-points (npk) =  40000
     Max angular momentum in pseudopotentials (lmaxx) =  4

     Reading input from environ.in:
     * using electronic solvent mode
     * setting boundary derivatives method to SCCS default

     file F.pbe-n-rrkjus_psl.1.0.0.UPF: wavefunction(s)  2S renormalized

     IMPORTANT: XC functional enforced from input :
     Exchange-correlation= PBE
                           (   1   4   3   4   0   0   0)
     Any further DFT definition will be discarded
     Please, verify this is what you really want


     gamma-point specific algorithms are used

     R & G space division:  proc/nbgrp/npool/nimage =     120
     Subspace diagonalization in iterative solution of the eigenvalue problem:
     one sub-group per band group will be used
     custom distributed-memory algorithm (size of sub-group:  4*  4 procs)


     Parallelization info
     --------------------
     sticks:   dense  smooth     PW     G-vecs:    dense   smooth      PW
     Min         203      66     16                37532     7200     892
     Max         206      68     18                37568     7240     918
     Sum       24483    8153   2047              4507039   867327  108457

     Using Slab Decomposition



     bravais-lattice index     =          -12
     lattice parameter (alat)  =      39.2218  a.u.
     unit-cell volume          =   13813.6491 (a.u.)^3
     number of atoms/cell      =          196
     number of atomic types    =            5
     number of electrons       =       704.00
     number of Kohn-Sham states=          355
     kinetic-energy cutoff     =      60.0000  Ry
     charge density cutoff     =     720.0000  Ry
     scf convergence threshold =      1.0E-05
     mixing beta               =       0.7000
     number of iterations used =            8  local-TF  mixing
     Exchange-correlation= PBE
                           (   1   4   3   4   0   0   0)

     ================================================================================

                                  Environ Setup Summary

     ================================================================================

     Please cite

          O. Andreussi, I. Dabo and N. Marzari, J. Chem. Phys. 136, 064102 (2012)

     in publications or presentations arising from this work.

     ================================================================================

     Parameters
     ==========

     compensation onset threshold      =               0.5000E+01
     static permittivity               =                    36.71
     surface tension in input (dyn/cm) =                    46.30
     surface tension in internal units =               0.5948E-04
     external pressure in input (GPa)  =                    -0.50
     external pressure in inter. units =              -0.3399E-04

     Solvent Boundary
     ================

     solvent mode                      =               electronic
     derivatives method                =                    chain
     numerical core for derivatives    =                      fft
     switching function adopted        =                     SCCS
     density limit for vacuum region   =               0.5000E-02
     density limit for bulk solvent    =               0.1000E-03

     Electrostatic Setup
     ===================

     electrostatic problem to solve    =              generalized
     numerical solver adopted          =                       cg
     type of auxiliary density adopted =                     none
     numerical core for poisson        =                      fft

     ================================================================================


     celldm(1)=  39.221833  celldm(2)=   0.277683  celldm(3)=   0.824575
     celldm(4)=   0.000000  celldm(5)=  -0.015819  celldm(6)=   0.000000

     crystal axes: (cart. coord. in units of alat)
               a(1) = (   1.000000   0.000000   0.000000 )
               a(2) = (   0.000000   0.277683   0.000000 )
               a(3) = (  -0.013044   0.000000   0.824472 )

     reciprocal axes: (cart. coord. in units 2 pi/alat)
               b(1) = (  1.000000 -0.000000  0.015821 )
               b(2) = (  0.000000  3.601231 -0.000000 )
               b(3) = (  0.000000  0.000000  1.212898 )


     PseudoPot. # 1 for O  read from file:
     /home/cyk/q-e-qe-7.2/pp/O.pbe-n-rrkjus_psl.1.0.0.UPF
     MD5 check sum: 91400c9766925bcf19f520983a725ff0
     Pseudo is Ultrasoft + core correction, Zval =  6.0
     Generated using &quot;atomic&quot; code by A. Dal Corso  v.6.3MaX
     Using radial grid of 1095 points,  4 beta functions with:
                l(1) =   0
                l(2) =   0
                l(3) =   1
                l(4) =   1
     Q(r) pseudized with 0 coefficients


     PseudoPot. # 2 for N  read from file:
     /home/cyk/q-e-qe-7.2/pp/N.pbe-n-rrkjus_psl.1.0.0.UPF
     MD5 check sum: ada94e3ed05223de5319d0572dc76806
     Pseudo is Ultrasoft + core correction, Zval =  5.0
     Generated using &quot;atomic&quot; code by A. Dal Corso  v.6.3MaX
     Using radial grid of 1085 points,  4 beta functions with:
                l(1) =   0
                l(2) =   0
                l(3) =   1
                l(4) =   1
     Q(r) pseudized with 0 coefficients


     PseudoPot. # 3 for C  read from file:
     /home/cyk/q-e-qe-7.2/pp/C.pbe-n-rrkjus_psl.1.0.0.UPF
     MD5 check sum: 1fdd950c42eb37d8afe3dd2f8d12311e
     Pseudo is Ultrasoft + core correction, Zval =  4.0
     Generated using &quot;atomic&quot; code by A. Dal Corso  v.6.3MaX
     Using radial grid of 1073 points,  4 beta functions with:
                l(1) =   0
                l(2) =   0
                l(3) =   1
                l(4) =   1
     Q(r) pseudized with 0 coefficients


     PseudoPot. # 4 for H  read from file:
     /home/cyk/q-e-qe-7.2/pp/H.pbe-rrkjus_psl.1.0.0.UPF
     MD5 check sum: 3f4114867bd07edc7f1424d066fc1888
     Pseudo is Ultrasoft, Zval =  1.0
     Generated using &quot;atomic&quot; code by A. Dal Corso  v.6.3MaX
     Using radial grid of  929 points,  2 beta functions with:
                l(1) =   0
                l(2) =   0
     Q(r) pseudized with 0 coefficients


     PseudoPot. # 5 for F  read from file:
     /home/cyk/q-e-qe-7.2/pp/F.pbe-n-rrkjus_psl.1.0.0.UPF
     MD5 check sum: 54b1cd0d2e22d705595f13732da1ccc9
     Pseudo is Ultrasoft + core correction, Zval =  7.0
     Generated using &quot;atomic&quot; code by A. Dal Corso  v.6.3MaX
     Using radial grid of 1105 points,  4 beta functions with:
                l(1) =   0
                l(2) =   0
                l(3) =   1
                l(4) =   1
     Q(r) pseudized with 0 coefficients


     atomic species   valence    mass     pseudopotential
        O              6.00    16.00000     O ( 1.00)
        N              5.00    14.00000     N ( 1.00)
        C              4.00    12.00000     C ( 1.00)
        H              1.00     1.00000     H ( 1.00)
        F              7.00    19.00000     F ( 1.00)

      4 Sym. Ops., with inversion, found ( 2 have fractional translation)



   Cartesian axes

     site n.     atom                  positions (alat units)
         1           O   tau(   1) = (   0.3738643   0.0356364   0.3772328  )
         2           O   tau(   2) = (   0.6196137   0.1744778   0.0350031  )
         3           O   tau(   3) = (   0.6130917   0.2420464   0.4472390  )
         4           O   tau(   4) = (   0.3673424   0.1032050   0.7894687  )
         5           O   tau(   5) = (   0.0684359  -0.0003272   0.2621794  )
         6           O   tau(   6) = (   0.9250422   0.1385142   0.1500566  )
         7           O   tau(   7) = (   0.9185202   0.2780100   0.5622924  )
         8           O   tau(   8) = (   0.0619139   0.1391686   0.6744152  )
         9           O   tau(   9) = (   0.7969984   0.2519224   0.7643909  )
        10           O   tau(  10) = (   0.1834357   0.1130810   0.4723167  )
        11           O   tau(  11) = (   0.1899576   0.0257604   0.0600808  )
        12           O   tau(  12) = (   0.8035204   0.1646018   0.3521551  )
        13           N   tau(  13) = (   0.5670239   0.1439116   0.5878711  )
        14           N   tau(  14) = (   0.4134102   0.0050702   0.6488365  )
        15           N   tau(  15) = (   0.4199321   0.1337712   0.2366007  )
        16           N   tau(  16) = (   0.5735459   0.2726127   0.1756352  )
        17           C   tau(  17) = (   0.2156362   0.2265597   0.3469703  )
        18           C   tau(  18) = (   0.7778419   0.0877183   0.0652655  )
        19           C   tau(  19) = (   0.7713199   0.0511231   0.4775014  )
        20           C   tau(  20) = (   0.2091142   0.1899645   0.7592062  )
        21           H   tau(  21) = (   0.2499626   0.2455428   0.3817393  )
        22           H   tau(  22) = (   0.7435154   0.1067014   0.0304966  )
        23           H   tau(  23) = (   0.7369934   0.0321401   0.4427325  )
        24           H   tau(  24) = (   0.2434406   0.1709815   0.7939751  )
        25           C   tau(  25) = (   0.1623855   0.2635451   0.3309378  )
        26           C   tau(  26) = (   0.8310926   0.1247037   0.0812981  )
        27           C   tau(  27) = (   0.8245706   0.0141377   0.4935340  )
        28           C   tau(  28) = (   0.1558635   0.1529791   0.7431737  )
        29           H   tau(  29) = (   0.1529617   0.0315456   0.3546410  )
        30           H   tau(  30) = (   0.8405164   0.1703870   0.0575948  )
        31           H   tau(  31) = (   0.8339944   0.2461372   0.4698307  )
        32           H   tau(  32) = (   0.1464397   0.1072958   0.7668769  )
        33           C   tau(  33) = (   0.1202170   0.2396486   0.2840612  )
        34           C   tau(  34) = (   0.8732611   0.1008072   0.1281747  )
        35           C   tau(  35) = (   0.8667391   0.0380342   0.5404106  )
        36           C   tau(  36) = (   0.1136950   0.1768756   0.6962971  )
        37           C   tau(  37) = (   0.1306370   0.1811141   0.2533004  )
        38           C   tau(  38) = (   0.8628410   0.0422727   0.1589355  )
        39           C   tau(  39) = (   0.8563191   0.0965687   0.5711714  )
        40           C   tau(  40) = (   0.1241150   0.2354101   0.6655363  )
        41           H   tau(  41) = (   0.0973524   0.1651705   0.2161434  )
        42           H   tau(  42) = (   0.8961256   0.0263291   0.1960925  )
        43           H   tau(  43) = (   0.8896036   0.1125123   0.6083284  )
        44           H   tau(  44) = (   0.0908304   0.2513537   0.6283793  )
        45           C   tau(  45) = (   0.1846100   0.1447652   0.2699008  )
        46           C   tau(  46) = (   0.8088680   0.0059238   0.1423351  )
        47           C   tau(  47) = (   0.8023460   0.1329176   0.5545710  )
        48           C   tau(  48) = (   0.1780881   0.2717590   0.6821367  )
        49           H   tau(  49) = (   0.1946717   0.0996223   0.2449652  )
        50           H   tau(  50) = (   0.7988063   0.2384637   0.1672706  )
        51           H   tau(  51) = (   0.7922844   0.1780605   0.5795065  )
        52           H   tau(  52) = (   0.1881497   0.0392191   0.6572011  )
        53           C   tau(  53) = (   0.2270135   0.1664015   0.3182409  )
        54           C   tau(  54) = (   0.7664645   0.0275601   0.0939950  )
        55           C   tau(  55) = (   0.7599425   0.1112813   0.5062309  )
        56           C   tau(  56) = (   0.2204915   0.2501227   0.7304768  )
        57           C   tau(  57) = (   0.2791694   0.1247825   0.3387369  )
        58           C   tau(  58) = (   0.7143087   0.2636239   0.0734991  )
        59           C   tau(  59) = (   0.7077867   0.1529003   0.4857349  )
        60           C   tau(  60) = (   0.2726474   0.0140589   0.7509727  )
        61           H   tau(  61) = (   0.2848420   0.0794511   0.3127950  )
        62           H   tau(  62) = (   0.7086361   0.2182925   0.0994409  )
        63           H   tau(  63) = (   0.7021141   0.1982317   0.5116768  )
        64           H   tau(  64) = (   0.2783200   0.0593903   0.7250309  )
        65           C   tau(  65) = (   0.3193664   0.1354945   0.3886583  )
        66           C   tau(  66) = (   0.6741116  -0.0033469   0.0235775  )
        67           C   tau(  67) = (   0.6675896   0.1421883   0.4358134  )
        68           C   tau(  68) = (   0.3128444   0.2810297   0.8008943  )
        69           H   tau(  69) = (   0.3156441   0.1794099   0.4167928  )
        70           H   tau(  70) = (   0.6778339   0.0405685  -0.0045570  )
        71           H   tau(  71) = (   0.6713120   0.0982730   0.4076790  )
        72           H   tau(  72) = (   0.3091221   0.2371144   0.8290287  )
        73           C   tau(  73) = (   0.3698892   0.0887499   0.4050452  )
        74           C   tau(  74) = (   0.6235888   0.2275913   0.0071907  )
        75           C   tau(  75) = (   0.6170668   0.1889330   0.4194266  )
        76           C   tau(  76) = (   0.3633673   0.0500915   0.8172810  )
        77           C   tau(  77) = (   0.4177983   0.1065984   0.4548527  )
        78           C   tau(  78) = (   0.5626357   0.2454398   0.7818549  )
        79           C   tau(  79) = (   0.5691577   0.1710844   0.3696191  )
        80           C   tau(  80) = (   0.4243203   0.0322430   0.0426168  )
        81           C   tau(  81) = (   0.4688680   0.0634290   0.4649552  )
        82           C   tau(  82) = (   0.5115661   0.2022704   0.7717524  )
        83           C   tau(  83) = (   0.5180881   0.2142538   0.3595165  )
        84           C   tau(  84) = (   0.4753899   0.0754124   0.0527193  )
        85           H   tau(  85) = (   0.4690851   0.0194001   0.4371081  )
        86           H   tau(  86) = (   0.5113489   0.1582415   0.7995995  )
        87           H   tau(  87) = (   0.5178709   0.2582827   0.3873637  )
        88           H   tau(  88) = (   0.4756071   0.1194413   0.0248722  )
        89           C   tau(  89) = (   0.5174521   0.0771271   0.5081605  )
        90           C   tau(  90) = (   0.4629820   0.2159685   0.7285472  )
        91           C   tau(  91) = (   0.4695040   0.2005557   0.3163113  )
        92           C   tau(  92) = (   0.5239740   0.0617143   0.0959246  )
        93           H   tau(  93) = (   0.5575351   0.0439546   0.5138834  )
        94           H   tau(  94) = (   0.4228990   0.1827960   0.7228241  )
        95           H   tau(  95) = (   0.4294209   0.2337282   0.3105883  )
        96           H   tau(  96) = (   0.5640571   0.0948868   0.1016476  )
        97           C   tau(  97) = (   0.5164339   0.1344241   0.5439043  )
        98           C   tau(  98) = (   0.4640002   0.2732655   0.6928033  )
        99           C   tau(  99) = (   0.4705222   0.1432587   0.2805674  )
       100           C   tau( 100) = (   0.5229558   0.0044173   0.1316684  )
       101           C   tau( 101) = (   0.4644705   0.1773737   0.5359940  )
       102           C   tau( 102) = (   0.5159636   0.0385323   0.7007137  )
       103           C   tau( 103) = (   0.5224855   0.1003091   0.2884778  )
       104           C   tau( 104) = (   0.4709925   0.2391505   0.1237581  )
       105           H   tau( 105) = (   0.4599899   0.2197777   0.5664572  )
       106           H   tau( 106) = (   0.5204442   0.0809363   0.6702504  )
       107           H   tau( 107) = (   0.5269662   0.0579051   0.2580145  )
       108           H   tau( 108) = (   0.4665118   0.1967465   0.1542214  )
       109           C   tau( 109) = (   0.4164525   0.1635074   0.4910891  )
       110           C   tau( 110) = (   0.5639816   0.0246660   0.7456185  )
       111           C   tau( 111) = (   0.5705035   0.1141754   0.3333826  )
       112           C   tau( 112) = (   0.4229745   0.2530168   0.0788532  )
       113           H   tau( 113) = (   0.3777270   0.1981107   0.4846185  )
       114           H   tau( 114) = (   0.6027071   0.0592693   0.7520891  )
       115           H   tau( 115) = (   0.6092291   0.0795721   0.3398533  )
       116           H   tau( 116) = (   0.3842489   0.2184135   0.0723826  )
       117           C   tau( 117) = (   0.5932765   0.1997531   0.5929761  )
       118           C   tau( 118) = (   0.3871576   0.0609117   0.6437315  )
       119           C   tau( 119) = (   0.3936796   0.0779297   0.2314957  )
       120           C   tau( 120) = (   0.5997984   0.2167711   0.1807402  )
       121           H   tau( 121) = (   0.5778429   0.2404911   0.5627094  )
       122           H   tau( 122) = (   0.4025912   0.1016497   0.6739983  )
       123           H   tau( 123) = (   0.4091132   0.0371917   0.2617624  )
       124           H   tau( 124) = (   0.5843648   0.1760331   0.1504735  )
       125           C   tau( 125) = (   0.6475548   0.2122544   0.6356616  )
       126           C   tau( 126) = (   0.3328792   0.0734130   0.6010460  )
       127           C   tau( 127) = (   0.3394012   0.0654284   0.1888102  )
       128           C   tau( 128) = (   0.6540768   0.2042698   0.2234257  )
       129           C   tau( 129) = (   0.6644579   0.1692419   0.6851931  )
       130           C   tau( 130) = (   0.3159762   0.0304005   0.5515146  )
       131           C   tau( 131) = (   0.3224982   0.1084409   0.1392787  )
       132           C   tau( 132) = (   0.6709799   0.2472823   0.2729571  )
       133           H   tau( 133) = (   0.6358390   0.1260288   0.6920198  )
       134           H   tau( 134) = (   0.3445951   0.2648702   0.5446878  )
       135           H   tau( 135) = (   0.3511170   0.1516540   0.1324520  )
       136           H   tau( 136) = (   0.6423610   0.0128126   0.2797840  )
       137           C   tau( 137) = (   0.7152102   0.1835475   0.7262408  )
       138           C   tau( 138) = (   0.2652239   0.0447061   0.5104668  )
       139           C   tau( 139) = (   0.2717459   0.0941353   0.0982309  )
       140           C   tau( 140) = (   0.7217321   0.2329767   0.3140050  )
       141           H   tau( 141) = (   0.7286846   0.1513063   0.7652593  )
       142           H   tau( 142) = (   0.2517495   0.0124649   0.4714484  )
       143           H   tau( 143) = (   0.2582715   0.1263765   0.0592125  )
       144           H   tau( 144) = (   0.7352065   0.2652179   0.3530234  )
       145           C   tau( 145) = (   0.7495552   0.2406640   0.7177336  )
       146           C   tau( 146) = (   0.2308789   0.1018226   0.5189740  )
       147           C   tau( 147) = (   0.2374009   0.0370188   0.1067381  )
       148           C   tau( 148) = (   0.7560772   0.1758602   0.3054978  )
       149           C   tau( 149) = (   0.7351375   0.0057556   0.6677971  )
       150           C   tau( 150) = (   0.2452965   0.1445970   0.5689106  )
       151           C   tau( 151) = (   0.2518185   0.2719272   0.1566747  )
       152           C   tau( 152) = (   0.7416595   0.1330858   0.2555612  )
       153           H   tau( 153) = (   0.7629971   0.0492082   0.6595193  )
       154           H   tau( 154) = (   0.2174370   0.1880496   0.5771883  )
       155           H   tau( 155) = (   0.2239590   0.2284746   0.1649524  )
       156           H   tau( 156) = (   0.7695191   0.0896332   0.2472835  )
       157           C   tau( 157) = (   0.6835472   0.2686737   0.6273347  )
       158           C   tau( 158) = (   0.2968869   0.1298322   0.6093729  )
       159           C   tau( 159) = (   0.3034089   0.0090092   0.1971371  )
       160           C   tau( 160) = (   0.6900692   0.1478506   0.2150988  )
       161           H   tau( 161) = (   0.6708815   0.0246796   0.5891280  )
       162           H   tau( 162) = (   0.3095525   0.1635210   0.6475796  )
       163           H   tau( 163) = (   0.3160745   0.2530032   0.2353438  )
       164           H   tau( 164) = (   0.6774035   0.1141618   0.1768921  )
       165           C   tau( 165) = (   0.8504404   0.2867982   0.7487110  )
       166           C   tau( 166) = (   0.1299937   0.1479568   0.4879966  )
       167           C   tau( 167) = (   0.1365157  -0.0091154   0.0757607  )
       168           C   tau( 168) = (   0.8569624   0.1297260   0.3364751  )
       169           F   tau( 169) = (   0.8373808   0.0730157   0.7395036  )
       170           F   tau( 170) = (   0.1430533   0.2118571   0.4972040  )
       171           F   tau( 171) = (   0.1495753   0.2046671   0.0849681  )
       172           F   tau( 172) = (   0.8439028   0.0658257   0.3272678  )
       173           F   tau( 173) = (   0.8919331   0.2821131   0.7979602  )
       174           F   tau( 174) = (   0.0885010   0.1432717   0.4387474  )
       175           F   tau( 175) = (   0.0950229  -0.0044303   0.0265115  )
       176           F   tau( 176) = (   0.8984551   0.1344111   0.3857244  )
       177           F   tau( 177) = (   0.8790199   0.2649718   0.6942256  )
       178           F   tau( 178) = (   0.1014142   0.1261304   0.5424820  )
       179           F   tau( 179) = (   0.1079362   0.0127110   0.1302461  )
       180           F   tau( 180) = (   0.8855419   0.1515524   0.2819898  )
       181           C   tau( 181) = (   0.0203165   0.2920852   0.3041284  )
       182           C   tau( 182) = (   0.9731615   0.1532438   0.1081075  )
       183           C   tau( 183) = (   0.9666395  -0.0144024   0.5203434  )
       184           C   tau( 184) = (   0.0137946   0.1244390   0.7163642  )
       185           F   tau( 185) = (  -0.0092614   0.2389688   0.3280417  )
       186           F   tau( 186) = (   1.0027394   0.1001274   0.0841941  )
       187           F   tau( 187) = (   0.9962174   0.0387140   0.4964300  )
       188           F   tau( 188) = (  -0.0157834   0.1775554   0.7402776  )
       189           F   tau( 189) = (   0.9766316   0.0494112   0.2710551  )
       190           F   tau( 190) = (   0.0168465   0.1882526   0.1411807  )
       191           F   tau( 191) = (   0.0103245   0.2282716   0.5534166  )
       192           F   tau( 192) = (   0.9701096   0.0894302   0.6832910  )
       193           F   tau( 193) = (   0.0400118   0.0500650   0.3554163  )
       194           F   tau( 194) = (   0.9534662   0.1889064   0.0568195  )
       195           F   tau( 195) = (   0.9469442   0.2276178   0.4690554  )
       196           F   tau( 196) = (   0.0334898   0.0887764   0.7676523  )

     --------------------------------------------
     DFT-D3 Dispersion Correction (3-body terms):
     --------------------------------------------
       Reference C6 values for interpolation:

         atom   Coordination number   C6
         H          0.912             6.05
         H          0.000            15.18
         C          0.000            98.23
         C          0.987            86.49
         C          1.998            58.72
         C          2.999            51.56
         C          3.984            36.41
         N          0.000            50.54
         N          0.994            44.25
         N          2.014            39.35
         N          2.990            31.16
         O          0.000            31.01
         O          0.993            25.63
         O          1.989            20.74
         F          0.000            19.38
         F          0.998            14.27

       Values used:

         atom   Coordination number  R0_AB[au]  C6      C8
         O          1.076            2.345     25.50    514.53
         O          1.076            2.345     25.50    514.53
         O          1.076            2.345     25.50    514.53
         O          1.076            2.345     25.50    514.53
         O          2.105            2.345     20.78    419.25
         O          2.105            2.345     20.78    419.25
         O          2.105            2.345     20.78    419.25
         O          2.105            2.345     20.78    419.25
         O          2.107            2.345     20.77    419.24
         O          2.107            2.345     20.77    419.24
         O          2.107            2.345     20.77    419.24
         O          2.107            2.345     20.77    419.24
         N          2.146            2.478     38.87    857.53
         N          2.146            2.478     38.87    857.53
         N          2.146            2.478     38.87    857.53
         N          2.146            2.478     38.87    857.53
         C          3.191            2.750     50.15   1450.44
         C          3.191            2.750     50.15   1450.45
         C          3.191            2.750     50.15   1450.45
         C          3.191            2.750     50.15   1450.44
         H          1.007            2.062      6.17     74.64
         H          1.007            2.062      6.17     74.64
         H          1.007            2.062      6.17     74.64
         H          1.007            2.062      6.17     74.64
         C          3.151            2.750     50.52   1461.21
         C          3.151            2.750     50.52   1461.21
         C          3.151            2.750     50.52   1461.21
         C          3.151            2.750     50.52   1461.21
         H          1.006            2.062      6.18     74.65
         H          1.006            2.062      6.18     74.65
         H          1.006            2.062      6.18     74.65
         H          1.006            2.062      6.18     74.65
         C          3.235            2.750     49.62   1435.06
         C          3.235            2.750     49.62   1435.06
         C          3.235            2.750     49.62   1435.06
         C          3.235            2.750     49.62   1435.06
         C          3.153            2.750     50.51   1460.84
         C          3.153            2.750     50.51   1460.84
         C          3.153            2.750     50.51   1460.84
         C          3.153            2.750     50.51   1460.84
         H          1.006            2.062      6.18     74.65
         H          1.006            2.062      6.18     74.65
         H          1.006            2.062      6.18     74.65
         H          1.006            2.062      6.18     74.65
         C          3.189            2.750     50.17   1451.08
         C          3.189            2.750     50.17   1451.08
         C          3.189            2.750     50.17   1451.08
         C          3.189            2.750     50.17   1451.08
         H          1.006            2.062      6.18     74.66
         H          1.006            2.062      6.18     74.66
         H          1.006            2.062      6.18     74.66
         H          1.006            2.062      6.18     74.66
         C          3.180            2.750     50.27   1453.76
         C          3.180            2.750     50.27   1453.76
         C          3.180            2.750     50.27   1453.76
         C          3.180            2.750     50.27   1453.76
         C          3.153            2.750     50.51   1460.77
         C          3.153            2.750     50.51   1460.77
         C          3.153            2.750     50.51   1460.77
         C          3.153            2.750     50.51   1460.77
         H          1.009            2.062      6.17     74.62
         H          1.009            2.062      6.17     74.62
         H          1.009            2.062      6.17     74.62
         H          1.009            2.062      6.17     74.62
         C          3.123            2.750     50.74   1467.35
         C          3.123            2.750     50.74   1467.35
         C          3.123            2.750     50.74   1467.35
         C          3.123            2.750     50.74   1467.35
         H          1.008            2.062      6.17     74.63
         H          1.008            2.062      6.17     74.63
         H          1.008            2.062      6.17     74.63
         H          1.008            2.062      6.17     74.63
         C          3.144            2.750     50.58   1462.91
         C          3.144            2.750     50.58   1462.91
         C          3.144            2.750     50.58   1462.91
         C          3.144            2.750     50.58   1462.91
         C          3.201            2.750     50.05   1447.46
         C          3.201            2.750     50.05   1447.46
         C          3.201            2.750     50.05   1447.46
         C          3.201            2.750     50.05   1447.46
         C          3.200            2.750     50.06   1447.78
         C          3.200            2.750     50.06   1447.78
         C          3.200            2.750     50.06   1447.78
         C          3.200            2.750     50.06   1447.78
         H          1.010            2.062      6.17     74.62
         H          1.010            2.062      6.17     74.62
         H          1.010            2.062      6.17     74.62
         H          1.010            2.062      6.17     74.62
         C          3.187            2.750     50.20   1451.87
         C          3.187            2.750     50.20   1451.87
         C          3.187            2.750     50.20   1451.87
         C          3.187            2.750     50.20   1451.87
         H          1.007            2.062      6.17     74.64
         H          1.007            2.062      6.17     74.64
         H          1.007            2.062      6.17     74.64
         H          1.007            2.062      6.17     74.64
         C          3.241            2.750     49.55   1433.03
         C          3.241            2.750     49.55   1433.03
         C          3.241            2.750     49.55   1433.03
         C          3.241            2.750     49.55   1433.03
         C          3.169            2.750     50.37   1456.70
         C          3.169            2.750     50.37   1456.70
         C          3.169            2.750     50.37   1456.70
         C          3.169            2.750     50.37   1456.70
         H          1.007            2.062      6.17     74.64
         H          1.007            2.062      6.17     74.64
         H          1.007            2.062      6.17     74.64
         H          1.007            2.062      6.17     74.64
         C          3.179            2.750     50.28   1454.16
         C          3.179            2.750     50.28   1454.16
         C          3.179            2.750     50.28   1454.16
         C          3.179            2.750     50.28   1454.16
         H          1.007            2.062      6.17     74.64
         H          1.007            2.062      6.17     74.64
         H          1.007            2.062      6.17     74.64
         H          1.007            2.062      6.17     74.64
         C          3.194            2.750     50.12   1449.66
         C          3.194            2.750     50.12   1449.66
         C          3.194            2.750     50.12   1449.66
         C          3.194            2.750     50.12   1449.66
         H          1.005            2.062      6.18     74.66
         H          1.005            2.062      6.18     74.66
         H          1.005            2.062      6.18     74.66
         H          1.005            2.062      6.18     74.66
         C          3.190            2.750     50.16   1450.70
         C          3.190            2.750     50.16   1450.70
         C          3.190            2.750     50.16   1450.70
         C          3.190            2.750     50.16   1450.70
         C          3.188            2.750     50.19   1451.54
         C          3.188            2.750     50.19   1451.54
         C          3.188            2.750     50.19   1451.54
         C          3.188            2.750     50.19   1451.54
         H          1.007            2.062      6.17     74.64
         H          1.007            2.062      6.17     74.64
         H          1.007            2.062      6.17     74.64
         H          1.007            2.062      6.17     74.64
         C          3.165            2.750     50.40   1457.70
         C          3.165            2.750     50.40   1457.70
         C          3.165            2.750     50.40   1457.70
         C          3.165            2.750     50.40   1457.70
         H          1.006            2.062      6.18     74.65
         H          1.006            2.062      6.18     74.65
         H          1.006            2.062      6.18     74.65
         H          1.006            2.062      6.18     74.65
         C          3.229            2.750     49.70   1437.49
         C          3.229            2.750     49.70   1437.49
         C          3.229            2.750     49.70   1437.49
         C          3.229            2.750     49.70   1437.49
         C          3.153            2.750     50.51   1460.73
         C          3.153            2.750     50.51   1460.73
         C          3.153            2.750     50.51   1460.73
         C          3.153            2.750     50.51   1460.73
         H          1.007            2.062      6.17     74.64
         H          1.007            2.062      6.17     74.64
         H          1.007            2.062      6.17     74.64
         H          1.007            2.062      6.17     74.64
         C          3.193            2.750     50.13   1449.90
         C          3.193            2.750     50.13   1449.90
         C          3.193            2.750     50.13   1449.90
         C          3.193            2.750     50.13   1449.90
         H          1.006            2.062      6.18     74.65
         H          1.006            2.062      6.18     74.65
         H          1.006            2.062      6.18     74.65
         H          1.006            2.062      6.18     74.65
         C          4.074            2.750     36.55   1056.99
         C          4.074            2.750     36.55   1056.99
         C          4.074            2.750     36.55   1056.99
         C          4.074            2.750     36.55   1056.99
         F          1.086            2.173     14.31    244.86
         F          1.086            2.173     14.31    244.86
         F          1.086            2.173     14.31    244.86
         F          1.086            2.173     14.31    244.86
         F          1.092            2.173     14.31    244.83
         F          1.092            2.173     14.31    244.83
         F          1.092            2.173     14.31    244.83
         F          1.092            2.173     14.31    244.83
         F          1.089            2.173     14.31    244.84
         F          1.089            2.173     14.31    244.84
         F          1.089            2.173     14.31    244.84
         F          1.089            2.173     14.31    244.84
         C          4.075            2.750     36.55   1056.97
         C          4.075            2.750     36.55   1056.97
         C          4.075            2.750     36.55   1056.97
         C          4.075            2.750     36.55   1056.97
         F          1.085            2.173     14.31    244.86
         F          1.085            2.173     14.31    244.86
         F          1.085            2.173     14.31    244.86
         F          1.085            2.173     14.31    244.86
         F          1.093            2.173     14.31    244.82
         F          1.093            2.173     14.31    244.82
         F          1.093            2.173     14.31    244.82
         F          1.093            2.173     14.31    244.82
         F          1.088            2.173     14.31    244.85
         F          1.088            2.173     14.31    244.85
         F          1.088            2.173     14.31    244.85
         F          1.088            2.173     14.31    244.85

         Molecular C6 ( Ry / a.u.^6 ) =    972736.68


     number of k points=     1
                       cart. coord. in units 2pi/alat
        k(    1) = (   0.0000000   0.0000000   0.0000000), wk =   2.0000000

     Dense  grid:  2253520 G-vectors     FFT dimensions: ( 360,  96, 288)

     Smooth grid:   433664 G-vectors     FFT dimensions: ( 200,  54, 160)

     Estimated max dynamical RAM per process >      70.78 MB

     Estimated total dynamical RAM >       8.29 GB

     Initial potential from superposition of free atoms

     starting charge     703.9954, renormalised to     704.0000
     Starting wfcs are  604 randomized atomic wfcs

     total cpu time spent up to now is        9.0 secs

     Self-consistent Calculation

     iteration #  1     ecut=    60.00 Ry     beta= 0.70
     Davidson diagonalization with overlap
     ethr =  1.00E-02,  avg # of iterations =  2.0

     total cpu time spent up to now is       13.0 secs

     total energy              =   -2903.15010660 Ry
     estimated scf accuracy    <      20.22034142 Ry
     electrostatic embedding   =       0.00000000 Ry
     cavitation energy         =       0.02723432 Ry
     PV energy                 =      -0.46123099 Ry
     correction to one-el term =      -0.00000000 Ry

     iteration #  2     ecut=    60.00 Ry     beta= 0.70
     Davidson diagonalization with overlap
     ethr =  2.87E-03,  avg # of iterations =  2.0

     add environment contribution to local potential
     Polarization accuracy = 5.7E-27, # of iterations =  77

     total cpu time spent up to now is       18.4 secs

     total energy              =   -2902.91888934 Ry
     estimated scf accuracy    <       4.81527212 Ry
     electrostatic embedding   =       0.00000000 Ry
     cavitation energy         =       0.02666181 Ry
     PV energy                 =      -0.46115220 Ry
     correction to one-el term =      -0.00000000 Ry

     iteration #  3     ecut=    60.00 Ry     beta= 0.70
     Davidson diagonalization with overlap
     ethr =  6.84E-04,  avg # of iterations =  4.0

     add environment contribution to local potential
     Polarization accuracy = 8.6E-27, # of iterations =  78

     total cpu time spent up to now is       24.9 secs

     total energy              =   -2903.93076323 Ry
     estimated scf accuracy    <       1.21746056 Ry
     electrostatic embedding   =      -0.04174915 Ry
     cavitation energy         =       0.03554589 Ry
     PV energy                 =      -0.45824926 Ry
     correction to one-el term =       0.63807025 Ry

     iteration #  4     ecut=    60.00 Ry     beta= 0.70
     Davidson diagonalization with overlap
     ethr =  1.73E-04,  avg # of iterations =  2.0

     add environment contribution to local potential
     Polarization accuracy = 3.5E-27, # of iterations =  93

     total cpu time spent up to now is       30.8 secs

     total energy              =   -2903.80102238 Ry
     estimated scf accuracy    <       0.52683158 Ry
     electrostatic embedding   =      -0.04678250 Ry
     cavitation energy         =       0.03965448 Ry
     PV energy                 =      -0.45705260 Ry
     correction to one-el term =       0.73232534 Ry

     iteration #  5     ecut=    60.00 Ry     beta= 0.70
     Davidson diagonalization with overlap
     ethr =  7.48E-05,  avg # of iterations =  6.0

     add environment contribution to local potential
     Polarization accuracy = 9.2E-27, # of iterations =  92

     total cpu time spent up to now is       38.2 secs

     total energy              =   -2903.85909849 Ry
     estimated scf accuracy    <       0.48587989 Ry
     electrostatic embedding   =      -0.06241623 Ry
     cavitation energy         =       0.05284825 Ry
     PV energy                 =      -0.45337763 Ry
     correction to one-el term =       0.99657148 Ry

     iteration #  6     ecut=    60.00 Ry     beta= 0.70
     Davidson diagonalization with overlap
     ethr =  6.90E-05,  avg # of iterations =  4.0

     add environment contribution to local potential
     Polarization accuracy = 1.0E-26, # of iterations = 103

     total cpu time spent up to now is       44.4 secs

     total energy              =   -2903.85588570 Ry
     estimated scf accuracy    <       0.14721281 Ry
     electrostatic embedding   =      -0.06280560 Ry
     cavitation energy         =       0.05266870 Ry
     PV energy                 =      -0.45338307 Ry
     correction to one-el term =       0.99150366 Ry

     iteration #  7     ecut=    60.00 Ry     beta= 0.70
     Davidson diagonalization with overlap
     ethr =  2.09E-05,  avg # of iterations =  8.0

     add environment contribution to local potential
     Polarization accuracy = 6.0E-27, # of iterations = 110

     total cpu time spent up to now is       53.4 secs

     total energy              =   -2903.97552837 Ry
     estimated scf accuracy    <       0.33326706 Ry
     electrostatic embedding   =      -0.07115371 Ry
     cavitation energy         =       0.06115258 Ry
     PV energy                 =      -0.45104533 Ry
     correction to one-el term =       1.06773907 Ry

     iteration #  8     ecut=    60.00 Ry     beta= 0.70
     Davidson diagonalization with overlap
     ethr =  2.09E-05,  avg # of iterations =  1.0

     add environment contribution to local potential
     Polarization accuracy = 8.0E-27, # of iterations = 114

     total cpu time spent up to now is       59.6 secs

     total energy              =   -2903.89846708 Ry
     estimated scf accuracy    <       0.29892613 Ry
     electrostatic embedding   =      -0.07500319 Ry
     cavitation energy         =       0.06516191 Ry
     PV energy                 =      -0.44991290 Ry
     correction to one-el term =       1.09013051 Ry

     iteration #  9     ecut=    60.00 Ry     beta= 0.70
     Davidson diagonalization with overlap
     ethr =  2.09E-05,  avg # of iterations =  2.0

     negative rho (up, down):  1.155E-05 0.000E+00

     add environment contribution to local potential
     Polarization accuracy = 7.3E-27, # of iterations = 115

     total cpu time spent up to now is       66.1 secs

     total energy              =   -2903.85432544 Ry
     estimated scf accuracy    <       0.12922492 Ry
     electrostatic embedding   =      -0.07496873 Ry
     cavitation energy         =       0.06667849 Ry
     PV energy                 =      -0.44941181 Ry
     correction to one-el term =       1.02932303 Ry

     iteration # 10     ecut=    60.00 Ry     beta= 0.70
     Davidson diagonalization with overlap
     ethr =  1.84E-05,  avg # of iterations =  7.0

     negative rho (up, down):  5.378E-06 0.000E+00

     add environment contribution to local potential
     Polarization accuracy = 8.2E-27, # of iterations = 115

     total cpu time spent up to now is       74.6 secs

     total energy              =   -2903.91478486 Ry
     estimated scf accuracy    <       0.08158932 Ry
     electrostatic embedding   =      -0.06612373 Ry
     cavitation energy         =       0.06275564 Ry
     PV energy                 =      -0.45035533 Ry
     correction to one-el term =       0.80911420 Ry

     iteration # 11     ecut=    60.00 Ry     beta= 0.70
     Davidson diagonalization with overlap
     ethr =  1.16E-05,  avg # of iterations =  2.0

     add environment contribution to local potential
     Polarization accuracy = 7.6E-27, # of iterations = 111

     total cpu time spent up to now is       80.8 secs

     total energy              =   -2903.89849754 Ry
     estimated scf accuracy    <       0.04380723 Ry
     electrostatic embedding   =      -0.07165207 Ry
     cavitation energy         =       0.06212069 Ry
     PV energy                 =      -0.45050781 Ry
     correction to one-el term =       0.81453289 Ry

     iteration # 12     ecut=    60.00 Ry     beta= 0.70
     Davidson diagonalization with overlap
     ethr =  6.22E-06,  avg # of iterations =  7.0

     add environment contribution to local potential
     Polarization accuracy = 7.9E-27, # of iterations = 110

     total cpu time spent up to now is       89.1 secs

     total energy              =   -2903.91990824 Ry
     estimated scf accuracy    <       0.03634990 Ry
     electrostatic embedding   =      -0.06406894 Ry
     cavitation energy         =       0.06132416 Ry
     PV energy                 =      -0.45074472 Ry
     correction to one-el term =       0.69817404 Ry

     iteration # 13     ecut=    60.00 Ry     beta= 0.70
     Davidson diagonalization with overlap
     ethr =  5.16E-06,  avg # of iterations =  2.0

     negative rho (up, down):  8.089E-06 0.000E+00

     add environment contribution to local potential
     Polarization accuracy = 5.7E-27, # of iterations = 111

     total cpu time spent up to now is       95.2 secs

     total energy              =   -2903.91123272 Ry
     estimated scf accuracy    <       0.03110309 Ry
     electrostatic embedding   =      -0.06248544 Ry
     cavitation energy         =       0.06058466 Ry
     PV energy                 =      -0.45094040 Ry
     correction to one-el term =       0.65751070 Ry

     iteration # 14     ecut=    60.00 Ry     beta= 0.70
     Davidson diagonalization with overlap
     ethr =  4.42E-06,  avg # of iterations =  2.0

     negative rho (up, down):  1.999E-05 0.000E+00

     add environment contribution to local potential
     Polarization accuracy = 4.9E-27, # of iterations = 113

     total cpu time spent up to now is      101.5 secs

     total energy              =   -2903.90661192 Ry
     estimated scf accuracy    <       0.01424964 Ry
     electrostatic embedding   =      -0.05368288 Ry
     cavitation energy         =       0.06011632 Ry
     PV energy                 =      -0.45106740 Ry
     correction to one-el term =       0.55244245 Ry

     iteration # 15     ecut=    60.00 Ry     beta= 0.70
     Davidson diagonalization with overlap
     ethr =  2.02E-06,  avg # of iterations =  5.0

     negative rho (up, down):  1.863E-05 0.000E+00

     add environment contribution to local potential
     Polarization accuracy = 5.6E-27, # of iterations = 112

     total cpu time spent up to now is      109.0 secs

     total energy              =   -2903.88301112 Ry
     estimated scf accuracy    <       0.00773953 Ry
     electrostatic embedding   =      -0.02842476 Ry
     cavitation energy         =       0.06038291 Ry
     PV energy                 =      -0.45097906 Ry
     correction to one-el term =       0.27439057 Ry

     iteration # 16     ecut=    60.00 Ry     beta= 0.70
     Davidson diagonalization with overlap
     ethr =  1.10E-06,  avg # of iterations =  3.0

     negative rho (up, down):  2.703E-08 0.000E+00

     add environment contribution to local potential
     Polarization accuracy = 5.8E-27, # of iterations = 112

     total cpu time spent up to now is      116.0 secs

     total energy              =   -2903.89984117 Ry
     estimated scf accuracy    <       0.00289166 Ry
     electrostatic embedding   =      -0.04964424 Ry
     cavitation energy         =       0.06041710 Ry
     PV energy                 =      -0.45097876 Ry
     correction to one-el term =       0.51122667 Ry

     iteration # 17     ecut=    60.00 Ry     beta= 0.70
     Davidson diagonalization with overlap
     ethr =  4.11E-07,  avg # of iterations =  6.0

     add environment contribution to local potential
     Polarization accuracy = 5.2E-27, # of iterations = 111

     total cpu time spent up to now is      123.6 secs

     total energy              =   -2903.90502408 Ry
     estimated scf accuracy    <       0.00185590 Ry
     electrostatic embedding   =      -0.05500811 Ry
     cavitation energy         =       0.06061727 Ry
     PV energy                 =      -0.45094302 Ry
     correction to one-el term =       0.58833448 Ry

     iteration # 18     ecut=    60.00 Ry     beta= 0.70
     Davidson diagonalization with overlap
     ethr =  2.64E-07,  avg # of iterations =  6.0

     add environment contribution to local potential
     Polarization accuracy = 5.3E-27, # of iterations = 109

     total cpu time spent up to now is      130.4 secs

     total energy              =   -2903.91202522 Ry
     estimated scf accuracy    <       0.00067958 Ry
     electrostatic embedding   =      -0.06255325 Ry
     cavitation energy         =       0.06064168 Ry
     PV energy                 =      -0.45094379 Ry
     correction to one-el term =       0.66593553 Ry

     iteration # 19     ecut=    60.00 Ry     beta= 0.70
     Davidson diagonalization with overlap
     ethr =  9.65E-08,  avg # of iterations =  4.0

     add environment contribution to local potential
     Polarization accuracy = 9.4E-27, # of iterations = 109

     total cpu time spent up to now is      137.8 secs

     total energy              =   -2903.91370115 Ry
     estimated scf accuracy    <       0.00037833 Ry
     electrostatic embedding   =      -0.06273738 Ry
     cavitation energy         =       0.06083812 Ry
     PV energy                 =      -0.45088460 Ry
     correction to one-el term =       0.66687507 Ry

     iteration # 20     ecut=    60.00 Ry     beta= 0.70
     Davidson diagonalization with overlap
     ethr =  5.37E-08,  avg # of iterations =  3.0

     add environment contribution to local potential
     Polarization accuracy = 8.2E-27, # of iterations = 109

     total cpu time spent up to now is      144.5 secs

     total energy              =   -2903.91456716 Ry
     estimated scf accuracy    <       0.00039052 Ry
     electrostatic embedding   =      -0.06287655 Ry
     cavitation energy         =       0.06088727 Ry
     PV energy                 =      -0.45086993 Ry
     correction to one-el term =       0.66785123 Ry

     iteration # 21     ecut=    60.00 Ry     beta= 0.70
     Davidson diagonalization with overlap
     ethr =  5.37E-08,  avg # of iterations =  2.0

     add environment contribution to local potential
     Polarization accuracy = 7.3E-27, # of iterations = 110

     total cpu time spent up to now is      150.9 secs

     total energy              =   -2903.91410849 Ry
     estimated scf accuracy    <       0.00043944 Ry
     electrostatic embedding   =      -0.06289376 Ry
     cavitation energy         =       0.06087704 Ry
     PV energy                 =      -0.45087331 Ry
     correction to one-el term =       0.66930308 Ry

     iteration # 22     ecut=    60.00 Ry     beta= 0.70
     Davidson diagonalization with overlap
     ethr =  5.37E-08,  avg # of iterations =  2.0

     add environment contribution to local potential
     Polarization accuracy = 8.6E-27, # of iterations = 109

     total cpu time spent up to now is      157.5 secs

     total energy              =   -2903.91326333 Ry
     estimated scf accuracy    <       0.00051165 Ry
     electrostatic embedding   =      -0.06295655 Ry
     cavitation energy         =       0.06089144 Ry
     PV energy                 =      -0.45087056 Ry
     correction to one-el term =       0.67259360 Ry

     iteration # 23     ecut=    60.00 Ry     beta= 0.70
     Davidson diagonalization with overlap
     ethr =  5.37E-08,  avg # of iterations =  2.0

     add environment contribution to local potential
     Polarization accuracy = 5.8E-27, # of iterations = 110

     total cpu time spent up to now is      164.1 secs

     total energy              =   -2903.91237705 Ry
     estimated scf accuracy    <       0.00033645 Ry
     electrostatic embedding   =      -0.06284197 Ry
     cavitation energy         =       0.06089491 Ry
     PV energy                 =      -0.45086584 Ry
     correction to one-el term =       0.66854113 Ry

     iteration # 24     ecut=    60.00 Ry     beta= 0.70
     Davidson diagonalization with overlap
     ethr =  4.78E-08,  avg # of iterations =  3.0

     add environment contribution to local potential
     Polarization accuracy = 6.2E-27, # of iterations = 110

     total cpu time spent up to now is      170.8 secs

     total energy              =   -2903.91247985 Ry
     estimated scf accuracy    <       0.00013521 Ry
     electrostatic embedding   =      -0.06285514 Ry
     cavitation energy         =       0.06095853 Ry
     PV energy                 =      -0.45084090 Ry
     correction to one-el term =       0.66305359 Ry

     iteration # 25     ecut=    60.00 Ry     beta= 0.70
     Davidson diagonalization with overlap
     ethr =  1.92E-08,  avg # of iterations =  7.0

     add environment contribution to local potential
     Polarization accuracy = 8.6E-27, # of iterations = 109

     total cpu time spent up to now is      178.2 secs

     total energy              =   -2903.91275661 Ry
     estimated scf accuracy    <       0.00002009 Ry
     electrostatic embedding   =      -0.06290662 Ry
     cavitation energy         =       0.06105930 Ry
     PV energy                 =      -0.45080632 Ry
     correction to one-el term =       0.65692955 Ry

     iteration # 26     ecut=    60.00 Ry     beta= 0.70
     Davidson diagonalization with overlap
     ethr =  2.85E-09,  avg # of iterations =  3.0

     add environment contribution to local potential
     Polarization accuracy = 4.9E-27, # of iterations = 109

     total cpu time spent up to now is      185.0 secs

     total energy              =   -2903.91279189 Ry
     estimated scf accuracy    <       0.00001523 Ry
     electrostatic embedding   =      -0.06290605 Ry
     cavitation energy         =       0.06107760 Ry
     PV energy                 =      -0.45079957 Ry
     correction to one-el term =       0.65657513 Ry

     iteration # 27     ecut=    60.00 Ry     beta= 0.70
     Davidson diagonalization with overlap
     ethr =  2.16E-09,  avg # of iterations =  3.0

     the potential shift due to the Gaussian-smeared nuclei is    -1.0892 ev

     total cpu time spent up to now is      188.3 secs

     End of self-consistent calculation

          k = 0.0000 0.0000 0.0000 ( 54229 PWs)   bands (ev):

   -26.8173 -26.8145 -26.8141 -26.8115 -26.6651 -26.6607 -26.6571 -26.6523
   -24.4623 -24.4588 -24.4584 -24.4548 -24.2979 -24.2954 -24.2887 -24.2861
   -24.2713 -24.2697 -24.2696 -24.2679 -24.1484 -24.1427 -24.1286 -24.1229
   -21.2580 -21.2577 -21.2570 -21.2569 -21.0966 -21.0939 -21.0909 -21.0881
   -18.8113 -18.8104 -18.8082 -18.8073 -16.7886 -16.7881 -16.7431 -16.7431
   -15.2258 -15.2188 -15.2176 -15.2101 -15.1785 -15.1655 -15.1643 -15.1570
   -14.4981 -14.4936 -14.4239 -14.4161 -13.4937 -13.4932 -13.4873 -13.4826
   -13.0591 -13.0493 -13.0417 -13.0280 -12.4169 -12.4032 -12.3489 -12.3478
   -12.3017 -12.2849 -12.2736 -12.2639 -12.2431 -12.2430 -12.2333 -12.2275
   -11.9202 -11.9018 -11.8747 -11.8345 -11.7202 -11.7133 -11.6945 -11.6864
   -11.1674 -11.1027 -11.0996 -11.0846 -10.8106 -10.7785 -10.7570 -10.7350
    -9.9747  -9.9213  -9.8961  -9.8827  -9.6209  -9.6054  -9.5934  -9.5514
    -9.2420  -9.2161  -9.2050  -9.1972  -9.0733  -9.0731  -9.0379  -9.0360
    -8.9790  -8.9611  -8.9571  -8.9237  -8.4642  -8.4605  -8.4475  -8.4363
    -8.4073  -8.3949  -8.3810  -8.3649  -8.3076  -8.2719  -8.2712  -8.2635
    -8.2491  -8.2382  -8.2328  -8.2100  -8.1815  -8.1674  -8.1637  -8.1548
    -8.1183  -8.0961  -8.0674  -8.0137  -7.8618  -7.8352  -7.8135  -7.7907
    -7.6302  -7.6175  -7.5748  -7.5519  -7.3991  -7.3421  -7.2557  -7.2288
    -6.7076  -6.6607  -6.6344  -6.6265  -6.3631  -6.3472  -6.3321  -6.3221
    -6.0776  -6.0621  -6.0047  -5.9940  -5.7355  -5.7245  -5.6935  -5.6679
    -5.3843  -5.3586  -5.3546  -5.3102  -5.2234  -5.2136  -5.2070  -5.1938
    -5.1305  -5.0939  -5.0780  -5.0755  -4.9599  -4.9468  -4.9065  -4.8912
    -4.8708  -4.8123  -4.7958  -4.7778  -4.7419  -4.7241  -4.7163  -4.6896
    -4.6703  -4.6686  -4.6526  -4.6478  -4.6236  -4.6122  -4.5978  -4.5733
    -4.5676  -4.5550  -4.5461  -4.4952  -4.4796  -4.4675  -4.4636  -4.4464
    -4.4158  -4.3995  -4.3824  -4.3721  -4.3358  -4.3295  -4.2779  -4.2461
    -4.2245  -4.2204  -4.1709  -4.1453  -4.1210  -4.1098  -4.0987  -4.0436
    -4.0352  -4.0262  -4.0227  -4.0168  -3.9664  -3.9563  -3.9278  -3.9160
    -3.9115  -3.8327  -3.8293  -3.8013  -3.8000  -3.7552  -3.6917  -3.6814
    -3.6680  -3.6641  -3.6419  -3.6177  -3.5916  -3.5620  -3.5263  -3.5134
    -3.4719  -3.4694  -3.4615  -3.4481  -3.4342  -3.4027  -3.3282  -3.3281
    -3.2691  -3.2636  -3.2359  -3.2283  -3.1880  -3.1792  -3.1732  -3.1598
    -3.1549  -3.1477  -3.1040  -3.0888  -3.0261  -3.0166  -3.0133  -2.9984
    -2.9871  -2.9330  -2.9234  -2.9093  -2.8874  -2.8778  -2.8613  -2.8305
    -2.8076  -2.7899  -2.7851  -2.6959  -2.6944  -2.6820  -2.6498  -2.6412
    -2.5846  -2.5141  -2.5052  -2.4816  -2.4279  -2.4219  -2.4095  -2.3026
    -2.2095  -2.1547  -2.1411  -2.1363  -2.0924  -2.0803  -2.0684  -2.0081
    -1.9498  -1.9300  -1.9130  -1.9085  -1.8415  -1.7860  -1.7674  -1.7651
    -1.6041  -1.5787  -1.4664  -1.4660  -1.4387  -1.4269  -1.3854  -1.3562
    -1.2625  -1.2107  -0.9667  -0.9139  -0.8341  -0.8124  -0.7900  -0.7712
    -0.3767  -0.3748  -0.3609  -0.3315  -0.2431  -0.2364  -0.1992  -0.1340
    -0.1331  -0.1310  -0.1031  -0.0658   0.1389   0.1514   0.2591   0.4206
     0.4886   0.5149   0.5316   0.5919   0.7659   0.7834   0.8179   0.8778
     0.9572   0.9889   0.9912   1.0080   1.0185   1.0622   1.2421   1.3801
     3.3645   3.3872   3.5758

     highest occupied, lowest unoccupied level (ev):     1.3801    3.3645

!    total energy              =   -2903.91285279 Ry
     estimated scf accuracy    <       0.00000467 Ry

     The total energy is the sum of the following terms:
     one-electron contribution =   -2403.73032833 Ry
     hartree contribution      =    1473.09238998 Ry
     xc contribution           =    -827.40473616 Ry
     ewald contribution        =   -1145.04220496 Ry
     DFT-D3 Dispersion         =      -1.03243186 Ry
     electrostatic embedding   =      -0.06299859 Ry
     cavitation energy         =       0.06116050 Ry
     PV energy                 =      -0.45077380 Ry
     correction to one-el term =       0.65707041 Ry

     convergence has been achieved in  27 iterations

     Writing all to output data dir ./outdir/4amp34.save/

     init_run     :      8.38s CPU      8.69s WALL (       1 calls)
     electrons    :    134.91s CPU    179.50s WALL (       1 calls)

     Called by init_run:
     wfcinit      :      1.07s CPU      1.14s WALL (       1 calls)
     potinit      :      2.15s CPU      2.24s WALL (       1 calls)
     hinit0       :      3.80s CPU      3.84s WALL (       1 calls)

     Called by electrons:
     c_bands      :     60.49s CPU     63.08s WALL (      27 calls)
     sum_band     :     10.06s CPU     10.58s WALL (      27 calls)
     v_of_rho     :      2.00s CPU      2.88s WALL (      28 calls)
     newd         :      4.62s CPU      4.85s WALL (      28 calls)
     mix_rho      :      1.38s CPU      1.71s WALL (      27 calls)
     energy_dftd3 :      0.73s CPU      0.74s WALL (       1 calls)

     Called by c_bands:
     init_us_2    :      0.46s CPU      0.49s WALL (      55 calls)
     init_us_2:cp :      0.46s CPU      0.49s WALL (      55 calls)
     regterg      :     59.97s CPU     62.49s WALL (      27 calls)

     Called by *egterg:
     rdiaghg      :     10.89s CPU     11.17s WALL (     127 calls)
     h_psi        :     28.42s CPU     29.69s WALL (     128 calls)
     s_psi        :      5.82s CPU      5.84s WALL (     128 calls)
     g_psi        :      0.04s CPU      0.04s WALL (     100 calls)

     Called by h_psi:
     h_psi:calbec :      6.78s CPU      7.46s WALL (     128 calls)
     vloc_psi     :     15.53s CPU     16.08s WALL (     128 calls)
     add_vuspsi   :      5.97s CPU      6.01s WALL (     128 calls)

     General routines
     calbec       :      9.17s CPU     10.14s WALL (     155 calls)
     fft          :      2.15s CPU      3.70s WALL (     306 calls)
     ffts         :      1.26s CPU      1.28s WALL (    1183 calls)
     fftw         :     15.98s CPU     16.54s WALL (   31228 calls)
     interpolate  :      0.52s CPU      0.67s WALL (      28 calls)

     Parallel routines

     Environ routines

     PWSCF        :   2m24.00s CPU   3m 9.65s WALL


   This run was terminated on:  14:20:17   5Mar2024

=------------------------------------------------------------------------------=
   JOB DONE.
=------------------------------------------------------------------------------=
