     Program PWSCF v.7.2 starts on  5Mar2024 at 14:43:25

     This program is part of the open-source Quantum ESPRESSO suite
     for quantum simulation of materials; please cite
         "P. Giannozzi et al., J. Phys.:Condens. Matter 21 395502 (2009);
         "P. Giannozzi et al., J. Phys.:Condens. Matter 29 465901 (2017);
         "P. Giannozzi et al., J. Chem. Phys. 152 154105 (2020);
          URL http://www.quantum-espresso.org",
     in publications or presentations arising from this work. More details at
     http://www.quantum-espresso.org/quote

     Parallel version (MPI), running on   120 processors

     MPI processes distributed on     1 nodes
     453580 MiB available memory on the printing compute node when the environment starts

     Reading input from 4amp34_scf.in

     Current dimensions of program PWSCF are:
     Max number of different atomic species (ntypx) = 10
     Max number of k-points (npk) =  40000
     Max angular momentum in pseudopotentials (lmaxx) =  4

     Reading input from environ.in:
     * using electronic solvent mode
     * setting boundary derivatives method to SCCS default

     file F.pbe-n-rrkjus_psl.1.0.0.UPF: wavefunction(s)  2S renormalized

     IMPORTANT: XC functional enforced from input :
     Exchange-correlation= PBE
                           (   1   4   3   4   0   0   0)
     Any further DFT definition will be discarded
     Please, verify this is what you really want


     gamma-point specific algorithms are used

     R & G space division:  proc/nbgrp/npool/nimage =     120
     Subspace diagonalization in iterative solution of the eigenvalue problem:
     one sub-group per band group will be used
     custom distributed-memory algorithm (size of sub-group:  4*  4 procs)


     Parallelization info
     --------------------
     sticks:   dense  smooth     PW     G-vecs:    dense   smooth      PW
     Min         169      66     16                28546     7200     892
     Max         174      68     18                28580     7240     918
     Sum       20405    8153   2047              3428433   867327  108457

     Using Slab Decomposition



     bravais-lattice index     =          -12
     lattice parameter (alat)  =      39.2218  a.u.
     unit-cell volume          =   13813.6491 (a.u.)^3
     number of atoms/cell      =          196
     number of atomic types    =            5
     number of electrons       =       704.00
     number of Kohn-Sham states=          365
     kinetic-energy cutoff     =      60.0000  Ry
     charge density cutoff     =     600.0000  Ry
     scf convergence threshold =      2.0E-05
     mixing beta               =       0.8000
     number of iterations used =            8  plain     mixing
     Exchange-correlation= PBE
                           (   1   4   3   4   0   0   0)

     ================================================================================

                                  Environ Setup Summary

     ================================================================================

     Please cite

          O. Andreussi, I. Dabo and N. Marzari, J. Chem. Phys. 136, 064102 (2012)

     in publications or presentations arising from this work.

     ================================================================================

     Parameters
     ==========

     compensation onset threshold      =               0.5000E+01
     static permittivity               =                    36.71
     surface tension in input (dyn/cm) =                    46.30
     surface tension in internal units =               0.5948E-04
     external pressure in input (GPa)  =                    -0.50
     external pressure in inter. units =              -0.3399E-04

     Solvent Boundary
     ================

     solvent mode                      =               electronic
     derivatives method                =                    chain
     numerical core for derivatives    =                      fft
     switching function adopted        =                     SCCS
     density limit for vacuum region   =               0.5000E-02
     density limit for bulk solvent    =               0.1000E-03

     Electrostatic Setup
     ===================

     electrostatic problem to solve    =              generalized
     numerical solver adopted          =                       cg
     type of auxiliary density adopted =                     none
     numerical core for poisson        =                      fft

     ================================================================================


     celldm(1)=  39.221833  celldm(2)=   0.277683  celldm(3)=   0.824575
     celldm(4)=   0.000000  celldm(5)=  -0.015819  celldm(6)=   0.000000

     crystal axes: (cart. coord. in units of alat)
               a(1) = (   1.000000   0.000000   0.000000 )
               a(2) = (   0.000000   0.277683   0.000000 )
               a(3) = (  -0.013044   0.000000   0.824472 )

     reciprocal axes: (cart. coord. in units 2 pi/alat)
               b(1) = (  1.000000 -0.000000  0.015821 )
               b(2) = (  0.000000  3.601231 -0.000000 )
               b(3) = (  0.000000  0.000000  1.212898 )


     PseudoPot. # 1 for O  read from file:
     /home/cyk/q-e-qe-7.2/pp/O.pbe-n-rrkjus_psl.1.0.0.UPF
     MD5 check sum: 91400c9766925bcf19f520983a725ff0
     Pseudo is Ultrasoft + core correction, Zval =  6.0
     Generated using &quot;atomic&quot; code by A. Dal Corso  v.6.3MaX
     Using radial grid of 1095 points,  4 beta functions with:
                l(1) =   0
                l(2) =   0
                l(3) =   1
                l(4) =   1
     Q(r) pseudized with 0 coefficients


     PseudoPot. # 2 for N  read from file:
     /home/cyk/q-e-qe-7.2/pp/N.pbe-n-rrkjus_psl.1.0.0.UPF
     MD5 check sum: ada94e3ed05223de5319d0572dc76806
     Pseudo is Ultrasoft + core correction, Zval =  5.0
     Generated using &quot;atomic&quot; code by A. Dal Corso  v.6.3MaX
     Using radial grid of 1085 points,  4 beta functions with:
                l(1) =   0
                l(2) =   0
                l(3) =   1
                l(4) =   1
     Q(r) pseudized with 0 coefficients


     PseudoPot. # 3 for C  read from file:
     /home/cyk/q-e-qe-7.2/pp/C.pbe-n-rrkjus_psl.1.0.0.UPF
     MD5 check sum: 1fdd950c42eb37d8afe3dd2f8d12311e
     Pseudo is Ultrasoft + core correction, Zval =  4.0
     Generated using &quot;atomic&quot; code by A. Dal Corso  v.6.3MaX
     Using radial grid of 1073 points,  4 beta functions with:
                l(1) =   0
                l(2) =   0
                l(3) =   1
                l(4) =   1
     Q(r) pseudized with 0 coefficients


     PseudoPot. # 4 for H  read from file:
     /home/cyk/q-e-qe-7.2/pp/H.pbe-rrkjus_psl.1.0.0.UPF
     MD5 check sum: 3f4114867bd07edc7f1424d066fc1888
     Pseudo is Ultrasoft, Zval =  1.0
     Generated using &quot;atomic&quot; code by A. Dal Corso  v.6.3MaX
     Using radial grid of  929 points,  2 beta functions with:
                l(1) =   0
                l(2) =   0
     Q(r) pseudized with 0 coefficients


     PseudoPot. # 5 for F  read from file:
     /home/cyk/q-e-qe-7.2/pp/F.pbe-n-rrkjus_psl.1.0.0.UPF
     MD5 check sum: 54b1cd0d2e22d705595f13732da1ccc9
     Pseudo is Ultrasoft + core correction, Zval =  7.0
     Generated using &quot;atomic&quot; code by A. Dal Corso  v.6.3MaX
     Using radial grid of 1105 points,  4 beta functions with:
                l(1) =   0
                l(2) =   0
                l(3) =   1
                l(4) =   1
     Q(r) pseudized with 0 coefficients


     atomic species   valence    mass     pseudopotential
        O              6.00    16.00000     O ( 1.00)
        N              5.00    14.00000     N ( 1.00)
        C              4.00    12.00000     C ( 1.00)
        H              1.00     1.00000     H ( 1.00)
        F              7.00    19.00000     F ( 1.00)

      4 Sym. Ops., with inversion, found ( 2 have fractional translation)



   Cartesian axes

     site n.     atom                  positions (alat units)
         1           O   tau(   1) = (   0.3738643   0.0356364   0.3772328  )
         2           O   tau(   2) = (   0.6196137   0.1744778   0.0350031  )
         3           O   tau(   3) = (   0.6130917   0.2420464   0.4472390  )
         4           O   tau(   4) = (   0.3673424   0.1032050   0.7894687  )
         5           O   tau(   5) = (   0.0684359  -0.0003272   0.2621794  )
         6           O   tau(   6) = (   0.9250422   0.1385142   0.1500566  )
         7           O   tau(   7) = (   0.9185202   0.2780100   0.5622924  )
         8           O   tau(   8) = (   0.0619139   0.1391686   0.6744152  )
         9           O   tau(   9) = (   0.7969984   0.2519224   0.7643909  )
        10           O   tau(  10) = (   0.1834357   0.1130810   0.4723167  )
        11           O   tau(  11) = (   0.1899576   0.0257604   0.0600808  )
        12           O   tau(  12) = (   0.8035204   0.1646018   0.3521551  )
        13           N   tau(  13) = (   0.5670239   0.1439116   0.5878711  )
        14           N   tau(  14) = (   0.4134102   0.0050702   0.6488365  )
        15           N   tau(  15) = (   0.4199321   0.1337712   0.2366007  )
        16           N   tau(  16) = (   0.5735459   0.2726127   0.1756352  )
        17           C   tau(  17) = (   0.2156362   0.2265597   0.3469703  )
        18           C   tau(  18) = (   0.7778419   0.0877183   0.0652655  )
        19           C   tau(  19) = (   0.7713199   0.0511231   0.4775014  )
        20           C   tau(  20) = (   0.2091142   0.1899645   0.7592062  )
        21           H   tau(  21) = (   0.2499626   0.2455428   0.3817393  )
        22           H   tau(  22) = (   0.7435154   0.1067014   0.0304966  )
        23           H   tau(  23) = (   0.7369934   0.0321401   0.4427325  )
        24           H   tau(  24) = (   0.2434406   0.1709815   0.7939751  )
        25           C   tau(  25) = (   0.1623855   0.2635451   0.3309378  )
        26           C   tau(  26) = (   0.8310926   0.1247037   0.0812981  )
        27           C   tau(  27) = (   0.8245706   0.0141377   0.4935340  )
        28           C   tau(  28) = (   0.1558635   0.1529791   0.7431737  )
        29           H   tau(  29) = (   0.1529617   0.0315456   0.3546410  )
        30           H   tau(  30) = (   0.8405164   0.1703870   0.0575948  )
        31           H   tau(  31) = (   0.8339944   0.2461372   0.4698307  )
        32           H   tau(  32) = (   0.1464397   0.1072958   0.7668769  )
        33           C   tau(  33) = (   0.1202170   0.2396486   0.2840612  )
        34           C   tau(  34) = (   0.8732611   0.1008072   0.1281747  )
        35           C   tau(  35) = (   0.8667391   0.0380342   0.5404106  )
        36           C   tau(  36) = (   0.1136950   0.1768756   0.6962971  )
        37           C   tau(  37) = (   0.1306370   0.1811141   0.2533004  )
        38           C   tau(  38) = (   0.8628410   0.0422727   0.1589355  )
        39           C   tau(  39) = (   0.8563191   0.0965687   0.5711714  )
        40           C   tau(  40) = (   0.1241150   0.2354101   0.6655363  )
        41           H   tau(  41) = (   0.0973524   0.1651705   0.2161434  )
        42           H   tau(  42) = (   0.8961256   0.0263291   0.1960925  )
        43           H   tau(  43) = (   0.8896036   0.1125123   0.6083284  )
        44           H   tau(  44) = (   0.0908304   0.2513537   0.6283793  )
        45           C   tau(  45) = (   0.1846100   0.1447652   0.2699008  )
        46           C   tau(  46) = (   0.8088680   0.0059238   0.1423351  )
        47           C   tau(  47) = (   0.8023460   0.1329176   0.5545710  )
        48           C   tau(  48) = (   0.1780881   0.2717590   0.6821367  )
        49           H   tau(  49) = (   0.1946717   0.0996223   0.2449652  )
        50           H   tau(  50) = (   0.7988063   0.2384637   0.1672706  )
        51           H   tau(  51) = (   0.7922844   0.1780605   0.5795065  )
        52           H   tau(  52) = (   0.1881497   0.0392191   0.6572011  )
        53           C   tau(  53) = (   0.2270135   0.1664015   0.3182409  )
        54           C   tau(  54) = (   0.7664645   0.0275601   0.0939950  )
        55           C   tau(  55) = (   0.7599425   0.1112813   0.5062309  )
        56           C   tau(  56) = (   0.2204915   0.2501227   0.7304768  )
        57           C   tau(  57) = (   0.2791694   0.1247825   0.3387369  )
        58           C   tau(  58) = (   0.7143087   0.2636239   0.0734991  )
        59           C   tau(  59) = (   0.7077867   0.1529003   0.4857349  )
        60           C   tau(  60) = (   0.2726474   0.0140589   0.7509727  )
        61           H   tau(  61) = (   0.2848420   0.0794511   0.3127950  )
        62           H   tau(  62) = (   0.7086361   0.2182925   0.0994409  )
        63           H   tau(  63) = (   0.7021141   0.1982317   0.5116768  )
        64           H   tau(  64) = (   0.2783200   0.0593903   0.7250309  )
        65           C   tau(  65) = (   0.3193664   0.1354945   0.3886583  )
        66           C   tau(  66) = (   0.6741116  -0.0033469   0.0235775  )
        67           C   tau(  67) = (   0.6675896   0.1421883   0.4358134  )
        68           C   tau(  68) = (   0.3128444   0.2810297   0.8008943  )
        69           H   tau(  69) = (   0.3156441   0.1794099   0.4167928  )
        70           H   tau(  70) = (   0.6778339   0.0405685  -0.0045570  )
        71           H   tau(  71) = (   0.6713120   0.0982730   0.4076790  )
        72           H   tau(  72) = (   0.3091221   0.2371144   0.8290287  )
        73           C   tau(  73) = (   0.3698892   0.0887499   0.4050452  )
        74           C   tau(  74) = (   0.6235888   0.2275913   0.0071907  )
        75           C   tau(  75) = (   0.6170668   0.1889330   0.4194266  )
        76           C   tau(  76) = (   0.3633673   0.0500915   0.8172810  )
        77           C   tau(  77) = (   0.4177983   0.1065984   0.4548527  )
        78           C   tau(  78) = (   0.5626357   0.2454398   0.7818549  )
        79           C   tau(  79) = (   0.5691577   0.1710844   0.3696191  )
        80           C   tau(  80) = (   0.4243203   0.0322430   0.0426168  )
        81           C   tau(  81) = (   0.4688680   0.0634290   0.4649552  )
        82           C   tau(  82) = (   0.5115661   0.2022704   0.7717524  )
        83           C   tau(  83) = (   0.5180881   0.2142538   0.3595165  )
        84           C   tau(  84) = (   0.4753899   0.0754124   0.0527193  )
        85           H   tau(  85) = (   0.4690851   0.0194001   0.4371081  )
        86           H   tau(  86) = (   0.5113489   0.1582415   0.7995995  )
        87           H   tau(  87) = (   0.5178709   0.2582827   0.3873637  )
        88           H   tau(  88) = (   0.4756071   0.1194413   0.0248722  )
        89           C   tau(  89) = (   0.5174521   0.0771271   0.5081605  )
        90           C   tau(  90) = (   0.4629820   0.2159685   0.7285472  )
        91           C   tau(  91) = (   0.4695040   0.2005557   0.3163113  )
        92           C   tau(  92) = (   0.5239740   0.0617143   0.0959246  )
        93           H   tau(  93) = (   0.5575351   0.0439546   0.5138834  )
        94           H   tau(  94) = (   0.4228990   0.1827960   0.7228241  )
        95           H   tau(  95) = (   0.4294209   0.2337282   0.3105883  )
        96           H   tau(  96) = (   0.5640571   0.0948868   0.1016476  )
        97           C   tau(  97) = (   0.5164339   0.1344241   0.5439043  )
        98           C   tau(  98) = (   0.4640002   0.2732655   0.6928033  )
        99           C   tau(  99) = (   0.4705222   0.1432587   0.2805674  )
       100           C   tau( 100) = (   0.5229558   0.0044173   0.1316684  )
       101           C   tau( 101) = (   0.4644705   0.1773737   0.5359940  )
       102           C   tau( 102) = (   0.5159636   0.0385323   0.7007137  )
       103           C   tau( 103) = (   0.5224855   0.1003091   0.2884778  )
       104           C   tau( 104) = (   0.4709925   0.2391505   0.1237581  )
       105           H   tau( 105) = (   0.4599899   0.2197777   0.5664572  )
       106           H   tau( 106) = (   0.5204442   0.0809363   0.6702504  )
       107           H   tau( 107) = (   0.5269662   0.0579051   0.2580145  )
       108           H   tau( 108) = (   0.4665118   0.1967465   0.1542214  )
       109           C   tau( 109) = (   0.4164525   0.1635074   0.4910891  )
       110           C   tau( 110) = (   0.5639816   0.0246660   0.7456185  )
       111           C   tau( 111) = (   0.5705035   0.1141754   0.3333826  )
       112           C   tau( 112) = (   0.4229745   0.2530168   0.0788532  )
       113           H   tau( 113) = (   0.3777270   0.1981107   0.4846185  )
       114           H   tau( 114) = (   0.6027071   0.0592693   0.7520891  )
       115           H   tau( 115) = (   0.6092291   0.0795721   0.3398533  )
       116           H   tau( 116) = (   0.3842489   0.2184135   0.0723826  )
       117           C   tau( 117) = (   0.5932765   0.1997531   0.5929761  )
       118           C   tau( 118) = (   0.3871576   0.0609117   0.6437315  )
       119           C   tau( 119) = (   0.3936796   0.0779297   0.2314957  )
       120           C   tau( 120) = (   0.5997984   0.2167711   0.1807402  )
       121           H   tau( 121) = (   0.5778429   0.2404911   0.5627094  )
       122           H   tau( 122) = (   0.4025912   0.1016497   0.6739983  )
       123           H   tau( 123) = (   0.4091132   0.0371917   0.2617624  )
       124           H   tau( 124) = (   0.5843648   0.1760331   0.1504735  )
       125           C   tau( 125) = (   0.6475548   0.2122544   0.6356616  )
       126           C   tau( 126) = (   0.3328792   0.0734130   0.6010460  )
       127           C   tau( 127) = (   0.3394012   0.0654284   0.1888102  )
       128           C   tau( 128) = (   0.6540768   0.2042698   0.2234257  )
       129           C   tau( 129) = (   0.6644579   0.1692419   0.6851931  )
       130           C   tau( 130) = (   0.3159762   0.0304005   0.5515146  )
       131           C   tau( 131) = (   0.3224982   0.1084409   0.1392787  )
       132           C   tau( 132) = (   0.6709799   0.2472823   0.2729571  )
       133           H   tau( 133) = (   0.6358390   0.1260288   0.6920198  )
       134           H   tau( 134) = (   0.3445951   0.2648702   0.5446878  )
       135           H   tau( 135) = (   0.3511170   0.1516540   0.1324520  )
       136           H   tau( 136) = (   0.6423610   0.0128126   0.2797840  )
       137           C   tau( 137) = (   0.7152102   0.1835475   0.7262408  )
       138           C   tau( 138) = (   0.2652239   0.0447061   0.5104668  )
       139           C   tau( 139) = (   0.2717459   0.0941353   0.0982309  )
       140           C   tau( 140) = (   0.7217321   0.2329767   0.3140050  )
       141           H   tau( 141) = (   0.7286846   0.1513063   0.7652593  )
       142           H   tau( 142) = (   0.2517495   0.0124649   0.4714484  )
       143           H   tau( 143) = (   0.2582715   0.1263765   0.0592125  )
       144           H   tau( 144) = (   0.7352065   0.2652179   0.3530234  )
       145           C   tau( 145) = (   0.7495552   0.2406640   0.7177336  )
       146           C   tau( 146) = (   0.2308789   0.1018226   0.5189740  )
       147           C   tau( 147) = (   0.2374009   0.0370188   0.1067381  )
       148           C   tau( 148) = (   0.7560772   0.1758602   0.3054978  )
       149           C   tau( 149) = (   0.7351375   0.0057556   0.6677971  )
       150           C   tau( 150) = (   0.2452965   0.1445970   0.5689106  )
       151           C   tau( 151) = (   0.2518185   0.2719272   0.1566747  )
       152           C   tau( 152) = (   0.7416595   0.1330858   0.2555612  )
       153           H   tau( 153) = (   0.7629971   0.0492082   0.6595193  )
       154           H   tau( 154) = (   0.2174370   0.1880496   0.5771883  )
       155           H   tau( 155) = (   0.2239590   0.2284746   0.1649524  )
       156           H   tau( 156) = (   0.7695191   0.0896332   0.2472835  )
       157           C   tau( 157) = (   0.6835472   0.2686737   0.6273347  )
       158           C   tau( 158) = (   0.2968869   0.1298322   0.6093729  )
       159           C   tau( 159) = (   0.3034089   0.0090092   0.1971371  )
       160           C   tau( 160) = (   0.6900692   0.1478506   0.2150988  )
       161           H   tau( 161) = (   0.6708815   0.0246796   0.5891280  )
       162           H   tau( 162) = (   0.3095525   0.1635210   0.6475796  )
       163           H   tau( 163) = (   0.3160745   0.2530032   0.2353438  )
       164           H   tau( 164) = (   0.6774035   0.1141618   0.1768921  )
       165           C   tau( 165) = (   0.8504404   0.2867982   0.7487110  )
       166           C   tau( 166) = (   0.1299937   0.1479568   0.4879966  )
       167           C   tau( 167) = (   0.1365157  -0.0091154   0.0757607  )
       168           C   tau( 168) = (   0.8569624   0.1297260   0.3364751  )
       169           F   tau( 169) = (   0.8373808   0.0730157   0.7395036  )
       170           F   tau( 170) = (   0.1430533   0.2118571   0.4972040  )
       171           F   tau( 171) = (   0.1495753   0.2046671   0.0849681  )
       172           F   tau( 172) = (   0.8439028   0.0658257   0.3272678  )
       173           F   tau( 173) = (   0.8919331   0.2821131   0.7979602  )
       174           F   tau( 174) = (   0.0885010   0.1432717   0.4387474  )
       175           F   tau( 175) = (   0.0950229  -0.0044303   0.0265115  )
       176           F   tau( 176) = (   0.8984551   0.1344111   0.3857244  )
       177           F   tau( 177) = (   0.8790199   0.2649718   0.6942256  )
       178           F   tau( 178) = (   0.1014142   0.1261304   0.5424820  )
       179           F   tau( 179) = (   0.1079362   0.0127110   0.1302461  )
       180           F   tau( 180) = (   0.8855419   0.1515524   0.2819898  )
       181           C   tau( 181) = (   0.0203165   0.2920852   0.3041284  )
       182           C   tau( 182) = (   0.9731615   0.1532438   0.1081075  )
       183           C   tau( 183) = (   0.9666395  -0.0144024   0.5203434  )
       184           C   tau( 184) = (   0.0137946   0.1244390   0.7163642  )
       185           F   tau( 185) = (  -0.0092614   0.2389688   0.3280417  )
       186           F   tau( 186) = (   1.0027394   0.1001274   0.0841941  )
       187           F   tau( 187) = (   0.9962174   0.0387140   0.4964300  )
       188           F   tau( 188) = (  -0.0157834   0.1775554   0.7402776  )
       189           F   tau( 189) = (   0.9766316   0.0494112   0.2710551  )
       190           F   tau( 190) = (   0.0168465   0.1882526   0.1411807  )
       191           F   tau( 191) = (   0.0103245   0.2282716   0.5534166  )
       192           F   tau( 192) = (   0.9701096   0.0894302   0.6832910  )
       193           F   tau( 193) = (   0.0400118   0.0500650   0.3554163  )
       194           F   tau( 194) = (   0.9534662   0.1889064   0.0568195  )
       195           F   tau( 195) = (   0.9469442   0.2276178   0.4690554  )
       196           F   tau( 196) = (   0.0334898   0.0887764   0.7676523  )

     --------------------------------------------
     DFT-D3 Dispersion Correction (3-body terms):
     --------------------------------------------
       Reference C6 values for interpolation:

         atom   Coordination number   C6
         H          0.912             6.05
         H          0.000            15.18
         C          0.000            98.23
         C          0.987            86.49
         C          1.998            58.72
         C          2.999            51.56
         C          3.984            36.41
         N          0.000            50.54
         N          0.994            44.25
         N          2.014            39.35
         N          2.990            31.16
         O          0.000            31.01
         O          0.993            25.63
         O          1.989            20.74
         F          0.000            19.38
         F          0.998            14.27

       Values used:

         atom   Coordination number  R0_AB[au]  C6      C8
         O          1.076            2.345     25.50    514.53
         O          1.076            2.345     25.50    514.53
         O          1.076            2.345     25.50    514.53
         O          1.076            2.345     25.50    514.53
         O          2.105            2.345     20.78    419.25
         O          2.105            2.345     20.78    419.25
         O          2.105            2.345     20.78    419.25
         O          2.105            2.345     20.78    419.25
         O          2.107            2.345     20.77    419.24
         O          2.107            2.345     20.77    419.24
         O          2.107            2.345     20.77    419.24
         O          2.107            2.345     20.77    419.24
         N          2.146            2.478     38.87    857.53
         N          2.146            2.478     38.87    857.53
         N          2.146            2.478     38.87    857.53
         N          2.146            2.478     38.87    857.53
         C          3.191            2.750     50.15   1450.44
         C          3.191            2.750     50.15   1450.45
         C          3.191            2.750     50.15   1450.45
         C          3.191            2.750     50.15   1450.44
         H          1.007            2.062      6.17     74.64
         H          1.007            2.062      6.17     74.64
         H          1.007            2.062      6.17     74.64
         H          1.007            2.062      6.17     74.64
         C          3.151            2.750     50.52   1461.21
         C          3.151            2.750     50.52   1461.21
         C          3.151            2.750     50.52   1461.21
         C          3.151            2.750     50.52   1461.21
         H          1.006            2.062      6.18     74.65
         H          1.006            2.062      6.18     74.65
         H          1.006            2.062      6.18     74.65
         H          1.006            2.062      6.18     74.65
         C          3.235            2.750     49.62   1435.06
         C          3.235            2.750     49.62   1435.06
         C          3.235            2.750     49.62   1435.06
         C          3.235            2.750     49.62   1435.06
         C          3.153            2.750     50.51   1460.84
         C          3.153            2.750     50.51   1460.84
         C          3.153            2.750     50.51   1460.84
         C          3.153            2.750     50.51   1460.84
         H          1.006            2.062      6.18     74.65
         H          1.006            2.062      6.18     74.65
         H          1.006            2.062      6.18     74.65
         H          1.006            2.062      6.18     74.65
         C          3.189            2.750     50.17   1451.08
         C          3.189            2.750     50.17   1451.08
         C          3.189            2.750     50.17   1451.08
         C          3.189            2.750     50.17   1451.08
         H          1.006            2.062      6.18     74.66
         H          1.006            2.062      6.18     74.66
         H          1.006            2.062      6.18     74.66
         H          1.006            2.062      6.18     74.66
         C          3.180            2.750     50.27   1453.76
         C          3.180            2.750     50.27   1453.76
         C          3.180            2.750     50.27   1453.76
         C          3.180            2.750     50.27   1453.76
         C          3.153            2.750     50.51   1460.77
         C          3.153            2.750     50.51   1460.77
         C          3.153            2.750     50.51   1460.77
         C          3.153            2.750     50.51   1460.77
         H          1.009            2.062      6.17     74.62
         H          1.009            2.062      6.17     74.62
         H          1.009            2.062      6.17     74.62
         H          1.009            2.062      6.17     74.62
         C          3.123            2.750     50.74   1467.35
         C          3.123            2.750     50.74   1467.35
         C          3.123            2.750     50.74   1467.35
         C          3.123            2.750     50.74   1467.35
         H          1.008            2.062      6.17     74.63
         H          1.008            2.062      6.17     74.63
         H          1.008            2.062      6.17     74.63
         H          1.008            2.062      6.17     74.63
         C          3.144            2.750     50.58   1462.91
         C          3.144            2.750     50.58   1462.91
         C          3.144            2.750     50.58   1462.91
         C          3.144            2.750     50.58   1462.91
         C          3.201            2.750     50.05   1447.46
         C          3.201            2.750     50.05   1447.46
         C          3.201            2.750     50.05   1447.46
         C          3.201            2.750     50.05   1447.46
         C          3.200            2.750     50.06   1447.78
         C          3.200            2.750     50.06   1447.78
         C          3.200            2.750     50.06   1447.78
         C          3.200            2.750     50.06   1447.78
         H          1.010            2.062      6.17     74.62
         H          1.010            2.062      6.17     74.62
         H          1.010            2.062      6.17     74.62
         H          1.010            2.062      6.17     74.62
         C          3.187            2.750     50.20   1451.87
         C          3.187            2.750     50.20   1451.87
         C          3.187            2.750     50.20   1451.87
         C          3.187            2.750     50.20   1451.87
         H          1.007            2.062      6.17     74.64
         H          1.007            2.062      6.17     74.64
         H          1.007            2.062      6.17     74.64
         H          1.007            2.062      6.17     74.64
         C          3.241            2.750     49.55   1433.03
         C          3.241            2.750     49.55   1433.03
         C          3.241            2.750     49.55   1433.03
         C          3.241            2.750     49.55   1433.03
         C          3.169            2.750     50.37   1456.70
         C          3.169            2.750     50.37   1456.70
         C          3.169            2.750     50.37   1456.70
         C          3.169            2.750     50.37   1456.70
         H          1.007            2.062      6.17     74.64
         H          1.007            2.062      6.17     74.64
         H          1.007            2.062      6.17     74.64
         H          1.007            2.062      6.17     74.64
         C          3.179            2.750     50.28   1454.16
         C          3.179            2.750     50.28   1454.16
         C          3.179            2.750     50.28   1454.16
         C          3.179            2.750     50.28   1454.16
         H          1.007            2.062      6.17     74.64
         H          1.007            2.062      6.17     74.64
         H          1.007            2.062      6.17     74.64
         H          1.007            2.062      6.17     74.64
         C          3.194            2.750     50.12   1449.66
         C          3.194            2.750     50.12   1449.66
         C          3.194            2.750     50.12   1449.66
         C          3.194            2.750     50.12   1449.66
         H          1.005            2.062      6.18     74.66
         H          1.005            2.062      6.18     74.66
         H          1.005            2.062      6.18     74.66
         H          1.005            2.062      6.18     74.66
         C          3.190            2.750     50.16   1450.70
         C          3.190            2.750     50.16   1450.70
         C          3.190            2.750     50.16   1450.70
         C          3.190            2.750     50.16   1450.70
         C          3.188            2.750     50.19   1451.54
         C          3.188            2.750     50.19   1451.54
         C          3.188            2.750     50.19   1451.54
         C          3.188            2.750     50.19   1451.54
         H          1.007            2.062      6.17     74.64
         H          1.007            2.062      6.17     74.64
         H          1.007            2.062      6.17     74.64
         H          1.007            2.062      6.17     74.64
         C          3.165            2.750     50.40   1457.70
         C          3.165            2.750     50.40   1457.70
         C          3.165            2.750     50.40   1457.70
         C          3.165            2.750     50.40   1457.70
         H          1.006            2.062      6.18     74.65
         H          1.006            2.062      6.18     74.65
         H          1.006            2.062      6.18     74.65
         H          1.006            2.062      6.18     74.65
         C          3.229            2.750     49.70   1437.49
         C          3.229            2.750     49.70   1437.49
         C          3.229            2.750     49.70   1437.49
         C          3.229            2.750     49.70   1437.49
         C          3.153            2.750     50.51   1460.73
         C          3.153            2.750     50.51   1460.73
         C          3.153            2.750     50.51   1460.73
         C          3.153            2.750     50.51   1460.73
         H          1.007            2.062      6.17     74.64
         H          1.007            2.062      6.17     74.64
         H          1.007            2.062      6.17     74.64
         H          1.007            2.062      6.17     74.64
         C          3.193            2.750     50.13   1449.90
         C          3.193            2.750     50.13   1449.90
         C          3.193            2.750     50.13   1449.90
         C          3.193            2.750     50.13   1449.90
         H          1.006            2.062      6.18     74.65
         H          1.006            2.062      6.18     74.65
         H          1.006            2.062      6.18     74.65
         H          1.006            2.062      6.18     74.65
         C          4.074            2.750     36.55   1056.99
         C          4.074            2.750     36.55   1056.99
         C          4.074            2.750     36.55   1056.99
         C          4.074            2.750     36.55   1056.99
         F          1.086            2.173     14.31    244.86
         F          1.086            2.173     14.31    244.86
         F          1.086            2.173     14.31    244.86
         F          1.086            2.173     14.31    244.86
         F          1.092            2.173     14.31    244.83
         F          1.092            2.173     14.31    244.83
         F          1.092            2.173     14.31    244.83
         F          1.092            2.173     14.31    244.83
         F          1.089            2.173     14.31    244.84
         F          1.089            2.173     14.31    244.84
         F          1.089            2.173     14.31    244.84
         F          1.089            2.173     14.31    244.84
         C          4.075            2.750     36.55   1056.97
         C          4.075            2.750     36.55   1056.97
         C          4.075            2.750     36.55   1056.97
         C          4.075            2.750     36.55   1056.97
         F          1.085            2.173     14.31    244.86
         F          1.085            2.173     14.31    244.86
         F          1.085            2.173     14.31    244.86
         F          1.085            2.173     14.31    244.86
         F          1.093            2.173     14.31    244.82
         F          1.093            2.173     14.31    244.82
         F          1.093            2.173     14.31    244.82
         F          1.093            2.173     14.31    244.82
         F          1.088            2.173     14.31    244.85
         F          1.088            2.173     14.31    244.85
         F          1.088            2.173     14.31    244.85
         F          1.088            2.173     14.31    244.85

         Molecular C6 ( Ry / a.u.^6 ) =    972736.68


     number of k points=     1
                       cart. coord. in units 2pi/alat
        k(    1) = (   0.0000000   0.0000000   0.0000000), wk =   2.0000000

     Dense  grid:  1714217 G-vectors     FFT dimensions: ( 320,  90, 256)

     Smooth grid:   433664 G-vectors     FFT dimensions: ( 200,  54, 160)

     Estimated max dynamical RAM per process >      57.47 MB

     Estimated total dynamical RAM >       6.74 GB

     Check: negative core charge=   -0.000001

     Initial potential from superposition of free atoms

     starting charge     703.9954, renormalised to     704.0000
     Starting wfcs are  604 randomized atomic wfcs

     total cpu time spent up to now is        7.1 secs

     Self-consistent Calculation

     iteration #  1     ecut=    60.00 Ry     beta= 0.80
     Davidson diagonalization with overlap
     ethr =  1.00E-02,  avg # of iterations =  2.0

     total cpu time spent up to now is       11.0 secs

     total energy              =   -2896.87683242 Ry
     estimated scf accuracy    <      20.22619972 Ry
     electrostatic embedding   =       0.00000000 Ry
     cavitation energy         =       0.02724662 Ry
     PV energy                 =      -0.46123097 Ry
     correction to one-el term =      -0.00000000 Ry

     iteration #  2     ecut=    60.00 Ry     beta= 0.80
     Davidson diagonalization with overlap
     ethr =  2.87E-03,  avg # of iterations =  5.0

     total cpu time spent up to now is       14.8 secs

     total energy              =   -2900.32847603 Ry
     estimated scf accuracy    <      12.40097144 Ry
     electrostatic embedding   =       0.00000000 Ry
     cavitation energy         =       0.06758037 Ry
     PV energy                 =      -0.44830174 Ry
     correction to one-el term =      -0.00000000 Ry

     iteration #  3     ecut=    60.00 Ry     beta= 0.80
     Davidson diagonalization with overlap
     ethr =  1.76E-03,  avg # of iterations =  4.0

     total cpu time spent up to now is       18.2 secs

     total energy              =   -2901.70749976 Ry
     estimated scf accuracy    <       7.80859996 Ry
     electrostatic embedding   =       0.00000000 Ry
     cavitation energy         =       0.05729416 Ry
     PV energy                 =      -0.45190236 Ry
     correction to one-el term =      -0.00000000 Ry

     iteration #  4     ecut=    60.00 Ry     beta= 0.80
     Davidson diagonalization with overlap
     ethr =  1.11E-03,  avg # of iterations =  3.0

     add environment contribution to local potential
     Polarization accuracy = 4.0E-27, # of iterations = 118

     total cpu time spent up to now is       24.4 secs

     total energy              =   -2903.56937720 Ry
     estimated scf accuracy    <       1.16883161 Ry
     electrostatic embedding   =       0.00000000 Ry
     cavitation energy         =       0.05846167 Ry
     PV energy                 =      -0.45149551 Ry
     correction to one-el term =      -0.00000000 Ry

     iteration #  5     ecut=    60.00 Ry     beta= 0.80
     Davidson diagonalization with overlap
     ethr =  1.66E-04,  avg # of iterations = 13.0

     add environment contribution to local potential
     Polarization accuracy = 9.3E-27, # of iterations = 116

     total cpu time spent up to now is       32.5 secs

     total energy              =   -2903.90841189 Ry
     estimated scf accuracy    <       0.34904665 Ry
     electrostatic embedding   =      -0.09030435 Ry
     cavitation energy         =       0.06148662 Ry
     PV energy                 =      -0.45057714 Ry
     correction to one-el term =       0.71560725 Ry

     iteration #  6     ecut=    60.00 Ry     beta= 0.80
     Davidson diagonalization with overlap
     ethr =  4.96E-05,  avg # of iterations =  6.0

     add environment contribution to local potential
     Polarization accuracy = 3.2E-27, # of iterations = 116

     total cpu time spent up to now is       38.7 secs

     total energy              =   -2903.92815726 Ry
     estimated scf accuracy    <       0.12222707 Ry
     electrostatic embedding   =      -0.09359878 Ry
     cavitation energy         =       0.06176400 Ry
     PV energy                 =      -0.45055762 Ry
     correction to one-el term =       0.87247111 Ry

     iteration #  7     ecut=    60.00 Ry     beta= 0.80
     Davidson diagonalization with overlap
     ethr =  1.74E-05,  avg # of iterations = 13.0

     add environment contribution to local potential
     Polarization accuracy = 7.6E-27, # of iterations = 114

     total cpu time spent up to now is       45.6 secs

     total energy              =   -2903.94086047 Ry
     estimated scf accuracy    <       0.03110931 Ry
     electrostatic embedding   =      -0.09433604 Ry
     cavitation energy         =       0.06161185 Ry
     PV energy                 =      -0.45062965 Ry
     correction to one-el term =       0.88975773 Ry

     iteration #  8     ecut=    60.00 Ry     beta= 0.80
     Davidson diagonalization with overlap
     ethr =  4.42E-06,  avg # of iterations = 12.0

     add environment contribution to local potential
     Polarization accuracy = 5.4E-27, # of iterations = 114

     total cpu time spent up to now is       52.7 secs

     total energy              =   -2903.94375630 Ry
     estimated scf accuracy    <       0.00663497 Ry
     electrostatic embedding   =      -0.09622183 Ry
     cavitation energy         =       0.06143828 Ry
     PV energy                 =      -0.45071055 Ry
     correction to one-el term =       0.94787959 Ry

     iteration #  9     ecut=    60.00 Ry     beta= 0.80
     Davidson diagonalization with overlap
     ethr =  9.42E-07,  avg # of iterations =  8.0

     add environment contribution to local potential
     Polarization accuracy = 8.2E-27, # of iterations = 112

     total cpu time spent up to now is       59.7 secs

     total energy              =   -2903.94467097 Ry
     estimated scf accuracy    <       0.00284998 Ry
     electrostatic embedding   =      -0.09695709 Ry
     cavitation energy         =       0.06144571 Ry
     PV energy                 =      -0.45071192 Ry
     correction to one-el term =       0.97022405 Ry

     iteration # 10     ecut=    60.00 Ry     beta= 0.80
     Davidson diagonalization with overlap
     ethr =  4.05E-07,  avg # of iterations =  5.0

     add environment contribution to local potential
     Polarization accuracy = 6.2E-27, # of iterations = 114

     total cpu time spent up to now is       66.0 secs

     total energy              =   -2903.94470328 Ry
     estimated scf accuracy    <       0.00088421 Ry
     electrostatic embedding   =      -0.09758715 Ry
     cavitation energy         =       0.06150751 Ry
     PV energy                 =      -0.45069341 Ry
     correction to one-el term =       0.98815971 Ry

     iteration # 11     ecut=    60.00 Ry     beta= 0.80
     Davidson diagonalization with overlap
     ethr =  1.26E-07,  avg # of iterations =  6.0

     add environment contribution to local potential
     Polarization accuracy = 8.3E-27, # of iterations = 113

     total cpu time spent up to now is       73.4 secs

     total energy              =   -2903.94834100 Ry
     estimated scf accuracy    <       0.00048460 Ry
     electrostatic embedding   =      -0.09802740 Ry
     cavitation energy         =       0.06161410 Ry
     PV energy                 =      -0.45066095 Ry
     correction to one-el term =       0.99968613 Ry

     iteration # 12     ecut=    60.00 Ry     beta= 0.80
     Davidson diagonalization with overlap
     ethr =  6.88E-08,  avg # of iterations =  5.0

     add environment contribution to local potential
     Polarization accuracy = 9.9E-27, # of iterations = 112

     total cpu time spent up to now is       80.0 secs

     total energy              =   -2903.96195886 Ry
     estimated scf accuracy    <       0.00013548 Ry
     electrostatic embedding   =      -0.09696330 Ry
     cavitation energy         =       0.06154643 Ry
     PV energy                 =      -0.45070081 Ry
     correction to one-el term =       0.96329233 Ry

     iteration # 13     ecut=    60.00 Ry     beta= 0.80
     Davidson diagonalization with overlap
     ethr =  1.92E-08,  avg # of iterations =  4.0

     add environment contribution to local potential
     Polarization accuracy = 7.0E-27, # of iterations = 112

     total cpu time spent up to now is       86.7 secs

     total energy              =   -2903.96385172 Ry
     estimated scf accuracy    <       0.00005134 Ry
     electrostatic embedding   =      -0.09746070 Ry
     cavitation energy         =       0.06164543 Ry
     PV energy                 =      -0.45065366 Ry
     correction to one-el term =       0.96559177 Ry

     iteration # 14     ecut=    60.00 Ry     beta= 0.80
     Davidson diagonalization with overlap
     ethr =  7.29E-09,  avg # of iterations =  4.0

     add environment contribution to local potential
     Polarization accuracy = 9.0E-27, # of iterations = 111

     total cpu time spent up to now is       93.0 secs

     total energy              =   -2903.96228654 Ry
     estimated scf accuracy    <       0.00002130 Ry
     electrostatic embedding   =      -0.09794822 Ry
     cavitation energy         =       0.06168596 Ry
     PV energy                 =      -0.45063746 Ry
     correction to one-el term =       0.97027256 Ry

     iteration # 15     ecut=    60.00 Ry     beta= 0.80
     Davidson diagonalization with overlap
     ethr =  3.03E-09,  avg # of iterations =  3.0

     the potential shift due to the Gaussian-smeared nuclei is    -1.0892 ev

     total cpu time spent up to now is       96.1 secs

     End of self-consistent calculation

          k = 0.0000 0.0000 0.0000 ( 54229 PWs)   bands (ev):

   -26.8545 -26.8532 -26.8504 -26.8496 -26.7301 -26.7275 -26.7231 -26.7198
   -24.5050 -24.5044 -24.5006 -24.5001 -24.3645 -24.3633 -24.3564 -24.3549
   -24.3036 -24.3029 -24.3020 -24.3013 -24.2150 -24.2138 -24.1955 -24.1943
   -21.2626 -21.2622 -21.2614 -21.2611 -21.1382 -21.1356 -21.1327 -21.1299
   -18.7687 -18.7676 -18.7655 -18.7644 -16.7426 -16.7417 -16.6973 -16.6966
   -15.2143 -15.2129 -15.2064 -15.2062 -15.1628 -15.1501 -15.1421 -15.1369
   -14.4504 -14.4446 -14.3762 -14.3672 -13.4848 -13.4840 -13.4789 -13.4734
   -13.0352 -13.0262 -13.0181 -13.0056 -12.3962 -12.3811 -12.3289 -12.3279
   -12.2857 -12.2680 -12.2641 -12.2531 -12.2484 -12.2417 -12.2326 -12.2207
   -11.8998 -11.8798 -11.8525 -11.8101 -11.6704 -11.6634 -11.6448 -11.6363
   -11.1660 -11.0993 -11.0950 -11.0813 -10.8299 -10.7974 -10.7747 -10.7512
    -9.9762  -9.9191  -9.8991  -9.8825  -9.6402  -9.6226  -9.6116  -9.5714
    -9.2353  -9.2101  -9.2006  -9.1948  -9.0802  -9.0788  -9.0447  -9.0431
    -8.9760  -8.9544  -8.9526  -8.9163  -8.4844  -8.4656  -8.4599  -8.4552
    -8.4322  -8.4148  -8.4096  -8.3858  -8.3321  -8.3081  -8.2972  -8.2733
    -8.2445  -8.2306  -8.2267  -8.2076  -8.1967  -8.1956  -8.1845  -8.1829
    -8.1433  -8.1242  -8.1065  -8.0514  -7.8566  -7.8221  -7.8000  -7.7815
    -7.6240  -7.6117  -7.5735  -7.5517  -7.3669  -7.3071  -7.2244  -7.1965
    -6.6696  -6.6223  -6.5989  -6.5919  -6.3365  -6.3215  -6.3058  -6.2972
    -6.0647  -6.0488  -5.9919  -5.9762  -5.7070  -5.6974  -5.6658  -5.6403
    -5.3838  -5.3637  -5.3624  -5.3065  -5.2179  -5.2093  -5.2073  -5.1865
    -5.1447  -5.1079  -5.0975  -5.0948  -4.9792  -4.9619  -4.9122  -4.9105
    -4.8841  -4.8202  -4.8156  -4.7839  -4.7447  -4.7373  -4.7367  -4.7194
    -4.6960  -4.6921  -4.6873  -4.6789  -4.6596  -4.6389  -4.6370  -4.5886
    -4.5826  -4.5731  -4.5455  -4.5228  -4.4758  -4.4636  -4.4557  -4.4444
    -4.4048  -4.4039  -4.3970  -4.3806  -4.3428  -4.3256  -4.2708  -4.2691
    -4.2535  -4.2088  -4.2077  -4.1586  -4.1265  -4.1241  -4.1013  -4.0647
    -4.0424  -4.0292  -4.0256  -4.0192  -3.9940  -3.9446  -3.9340  -3.9143
    -3.8929  -3.8369  -3.8296  -3.7940  -3.7909  -3.7644  -3.7024  -3.6948
    -3.6884  -3.6703  -3.6337  -3.6051  -3.5939  -3.5663  -3.5161  -3.5111
    -3.4833  -3.4828  -3.4680  -3.4464  -3.4029  -3.3932  -3.3325  -3.3322
    -3.3150  -3.3099  -3.2726  -3.2450  -3.2197  -3.2183  -3.1968  -3.1851
    -3.1668  -3.1421  -3.1062  -3.0956  -3.0678  -3.0599  -3.0549  -3.0362
    -2.9840  -2.9326  -2.9157  -2.8932  -2.8803  -2.8553  -2.8426  -2.8008
    -2.7944  -2.7693  -2.7622  -2.6979  -2.6943  -2.6838  -2.6432  -2.6245
    -2.5604  -2.4828  -2.4805  -2.4560  -2.4144  -2.4046  -2.3896  -2.2972
    -2.1921  -2.1247  -2.1156  -2.1117  -2.0814  -2.0471  -2.0324  -1.9755
    -1.9308  -1.9140  -1.8976  -1.8967  -1.8185  -1.7613  -1.7426  -1.7373
    -1.5779  -1.5532  -1.4653  -1.4534  -1.4341  -1.4270  -1.3637  -1.3570
    -1.2179  -1.1746  -0.9192  -0.8823  -0.8318  -0.7992  -0.7868  -0.7662
    -0.3438  -0.3421  -0.3323  -0.3039  -0.2123  -0.1989  -0.1848  -0.1324
    -0.1309  -0.1307  -0.0856  -0.0244   0.1840   0.1975   0.3028   0.4665
     0.5194   0.5496   0.5711   0.6309   0.7842   0.7981   0.8360   0.8945
     1.0012   1.0314   1.0340   1.0506   1.0612   1.1062   1.2848   1.4224
     3.3935   3.4173   3.6028   3.6225   4.0718   4.1667   4.2362   4.3440
     4.9186   4.9233   4.9396   4.9582   5.0431

     highest occupied, lowest unoccupied level (ev):     1.4224    3.3935

!    total energy              =   -2903.96832841 Ry
     estimated scf accuracy    <       0.00001156 Ry

     The total energy is the sum of the following terms:
     one-electron contribution =   -2404.51549861 Ry
     hartree contribution      =    1473.55284028 Ry
     xc contribution           =    -827.40952078 Ry
     ewald contribution        =   -1145.04220496 Ry
     DFT-D3 Dispersion         =      -1.03243186 Ry
     electrostatic embedding   =      -0.09804258 Ry
     cavitation energy         =       0.06169152 Ry
     PV energy                 =      -0.45063553 Ry
     correction to one-el term =       0.96547410 Ry

     convergence has been achieved in  15 iterations

     Writing all to output data dir ./outdir/4amp34.save/

     init_run     :      6.61s CPU      6.82s WALL (       1 calls)
     electrons    :     76.50s CPU     89.18s WALL (       1 calls)

     Called by init_run:
     wfcinit      :      1.09s CPU      1.12s WALL (       1 calls)
     potinit      :      1.67s CPU      1.74s WALL (       1 calls)
     hinit0       :      2.88s CPU      2.91s WALL (       1 calls)

     Called by electrons:
     c_bands      :     40.00s CPU     41.50s WALL (      15 calls)
     sum_band     :      5.01s CPU      5.25s WALL (      15 calls)
     v_of_rho     :      1.06s CPU      1.32s WALL (      16 calls)
     newd         :      2.04s CPU      2.11s WALL (      16 calls)
     mix_rho      :      0.15s CPU      0.22s WALL (      15 calls)
     energy_dftd3 :      0.74s CPU      0.74s WALL (       1 calls)

     Called by c_bands:
     init_us_2    :      0.20s CPU      0.21s WALL (      31 calls)
     init_us_2:cp :      0.20s CPU      0.21s WALL (      31 calls)
     regterg      :     39.73s CPU     41.19s WALL (      15 calls)

     Called by *egterg:
     rdiaghg      :     10.36s CPU     10.62s WALL (     108 calls)
     h_psi        :     17.05s CPU     17.66s WALL (     109 calls)
     s_psi        :      3.42s CPU      3.43s WALL (     109 calls)
     g_psi        :      0.02s CPU      0.02s WALL (      93 calls)

     Called by h_psi:
     h_psi:calbec :      4.23s CPU      4.55s WALL (     109 calls)
     vloc_psi     :      9.28s CPU      9.57s WALL (     109 calls)
     add_vuspsi   :      3.47s CPU      3.49s WALL (     109 calls)

     General routines
     calbec       :      5.61s CPU      6.04s WALL (     124 calls)
     fft          :      1.56s CPU      2.06s WALL (     174 calls)
     ffts         :      0.42s CPU      0.42s WALL (      31 calls)
     fftw         :      9.97s CPU     10.26s WALL (   18617 calls)
     interpolate  :      0.49s CPU      0.53s WALL (      16 calls)

     Parallel routines

     Environ routines

     PWSCF        :   1m23.78s CPU   1m37.39s WALL


   This run was terminated on:  14:45: 2   5Mar2024

=------------------------------------------------------------------------------=
   JOB DONE.
=------------------------------------------------------------------------------=
