 DBCSR| CPU Multiplication driver                                           XSMM (U)
 DBCSR| Multrec recursion limit                                              512 (U)
 DBCSR| Multiplication stack size                                           1000 (D)
 DBCSR| Maximum elements for images                                    UNLIMITED (U)
 DBCSR| Multiplicative factor virtual images                                   1 (U)
 DBCSR| Use multiplication densification                                       T (D)
 DBCSR| Multiplication size stacks                                             3 (U)
 DBCSR| Use memory pool for CPU allocation                                     F (U)
 DBCSR| Number of 3D layers                                               SINGLE (U)
 DBCSR| Use MPI memory allocation                                              F (U)
 DBCSR| Use RMA algorithm                                                      F (U)
 DBCSR| Use Communication thread                                               T (U)
 DBCSR| Communication thread load                                             83 (D)
 DBCSR| MPI: My process id                                                     0
 DBCSR| MPI: Number of processes                                              90
 DBCSR| OMP: Current number of threads                                         2
 DBCSR| OMP: Max number of threads                                             2
 DBCSR| Split modifier for TAS multiplication algorithm                  1.0E+00 (U)


  **** **** ******  **  PROGRAM STARTED AT               2024-03-04 11:19:16.319
 ***** ** ***  *** **   PROGRAM STARTED ON                          aac15b48d4db
 **    ****   ******    PROGRAM STARTED BY                             <unknown>
 ***** **    ** ** **   PROGRAM PROCESS ID                                   538
  **** **  *******  **  PROGRAM STARTED IN                                  /mnt

 CP2K| version string:                                       CP2K version 2023.2
 CP2K| source code revision number:                                  git:65cca6c
 CP2K| cp2kflags: omp libint fftw3 libxc pexsi elpa parallel scalapack cosma qui
 CP2K|            p xsmm plumed2 spglib sirius libvori libbqb libtorch libvdwxc
 CP2K| is freely available from                            https://www.cp2k.org/
 CP2K| Program compiled at                          Wed Oct 18 11:40:41 UTC 2023
 CP2K| Program compiled on                                          633bb7bf566f
 CP2K| Program compiled for                                                local
 CP2K| Data directory path                                        /opt/cp2k/data
 CP2K| Input file name                                          4amp34iso_geo.in

 GLOBAL| Force Environment number                                              1
 GLOBAL| Basis set file name                                    BASIS_MOLOPT_UZH
 GLOBAL| Potential file name                                       POTENTIAL_UZH
 GLOBAL| MM Potential file name                                     MM_POTENTIAL
 GLOBAL| Coordinate file name                                      __STD_INPUT__
 GLOBAL| Method name                                                        CP2K
 GLOBAL| Project name                                               4amp34isogeo
 GLOBAL| Run type                                                        GEO_OPT
 GLOBAL| FFT library                                                       FFTW3
 GLOBAL| Diagonalization library                                       ScaLAPACK
 GLOBAL| DGEMM library                                                      BLAS
 GLOBAL| Orthonormality check for eigenvectors                          DISABLED
 GLOBAL| Matrix multiplication library                                     COSMA
 GLOBAL| All-to-all communication in single precision                          F
 GLOBAL| FFTs using library dependent lengths                                  F
 GLOBAL| Grid backend                                                       AUTO
 GLOBAL| Global print level                                               MEDIUM
 GLOBAL| MPI I/O enabled                                                       T
 GLOBAL| Total number of message passing processes                            90
 GLOBAL| Number of threads for this process                                    2
 GLOBAL| This output is from process                                           0
 GLOBAL| Stack size for threads created by OpenMP (OMP_STACKSIZE)            16M
 GLOBAL| CPU model name                                            AMD EPYC 9B14
 GLOBAL| CPUID                                                              1003
 GLOBAL| Compiled for CPUID                                                    0

 *** HINT in environment.F:904 :: The compiler target flags (generic) used ***
 *** to build this binary cannot exploit all extensions of this CPU model  ***
 *** (x86_avx512). Consider compiler target flags as part of FCFLAGS and   ***
 *** CFLAGS (ARCH file).                                                   ***


 MEMORY| system memory details [Kb]
 MEMORY|                        rank 0           min           max       average
 MEMORY| MemTotal            365023396     365023396     365023396     365023396
 MEMORY| MemFree             351462508     351462508     351462508     351462508
 MEMORY| Buffers                 19256         19256         19256         19256
 MEMORY| Cached                 839380        839380        839380        839380
 MEMORY| Slab                   432000        432000        432000        432000
 MEMORY| SReclaimable            87348         87348         87348         87348
 MEMORY| MemLikelyFree       352408492     352408492     352408492     352408492


 *** Fundamental physical constants (SI units) ***

 *** Literature: B. J. Mohr and B. N. Taylor,
 ***             CODATA recommended values of the fundamental physical
 ***             constants: 2006, Web Version 5.1
 ***             http://physics.nist.gov/constants

 Speed of light in vacuum [m/s]                             2.99792458000000E+08
 Magnetic constant or permeability of vacuum [N/A**2]       1.25663706143592E-06
 Electric constant or permittivity of vacuum [F/m]          8.85418781762039E-12
 Planck constant (h) [J*s]                                  6.62606896000000E-34
 Planck constant (h-bar) [J*s]                              1.05457162825177E-34
 Elementary charge [C]                                      1.60217648700000E-19
 Electron mass [kg]                                         9.10938215000000E-31
 Electron g factor [ ]                                     -2.00231930436220E+00
 Proton mass [kg]                                           1.67262163700000E-27
 Fine-structure constant                                    7.29735253760000E-03
 Rydberg constant [1/m]                                     1.09737315685270E+07
 Avogadro constant [1/mol]                                  6.02214179000000E+23
 Boltzmann constant [J/K]                                   1.38065040000000E-23
 Atomic mass unit [kg]                                      1.66053878200000E-27
 Bohr radius [m]                                            5.29177208590000E-11

 *** Conversion factors ***

 [u] -> [a.u.]                                              1.82288848426455E+03
 [Angstrom] -> [Bohr] = [a.u.]                              1.88972613288564E+00
 [a.u.] = [Bohr] -> [Angstrom]                              5.29177208590000E-01
 [a.u.] -> [s]                                              2.41888432650478E-17
 [a.u.] -> [fs]                                             2.41888432650478E-02
 [a.u.] -> [J]                                              4.35974393937059E-18
 [a.u.] -> [N]                                              8.23872205491840E-08
 [a.u.] -> [K]                                              3.15774647902944E+05
 [a.u.] -> [kJ/mol]                                         2.62549961709828E+03
 [a.u.] -> [kcal/mol]                                       6.27509468713739E+02
 [a.u.] -> [Pa]                                             2.94210107994716E+13
 [a.u.] -> [bar]                                            2.94210107994716E+08
 [a.u.] -> [atm]                                            2.90362800883016E+08
 [a.u.] -> [eV]                                             2.72113838565563E+01
 [a.u.] -> [Hz]                                             6.57968392072181E+15
 [a.u.] -> [1/cm] (wave numbers)                            2.19474631370540E+05
 [a.u./Bohr**2] -> [1/cm]                                   5.14048714338585E+03
 

 CELL_TOP| Volume [angstrom^3]:                                     27000.000000
 CELL_TOP| Vector a [angstrom    30.000     0.000     0.000   |a| =    30.000000
 CELL_TOP| Vector b [angstrom     0.000    30.000     0.000   |b| =    30.000000
 CELL_TOP| Vector c [angstrom     0.000     0.000    30.000   |c| =    30.000000
 CELL_TOP| Angle (b,c), alpha [degree]:                                90.000000
 CELL_TOP| Angle (a,c), beta  [degree]:                                90.000000
 CELL_TOP| Angle (a,b), gamma [degree]:                                90.000000
 CELL_TOP| Numerically orthorhombic:                                         YES
 CELL_TOP| Periodicity                                                      NONE

 GENERATE|  Preliminary Number of Bonds generated:                             0
 GENERATE|  Achieved consistency in connectivity generation.

 CELL| Volume [angstrom^3]:                                         27000.000000
 CELL| Vector a [angstrom]:      30.000     0.000     0.000   |a| =    30.000000
 CELL| Vector b [angstrom]:       0.000    30.000     0.000   |b| =    30.000000
 CELL| Vector c [angstrom]:       0.000     0.000    30.000   |c| =    30.000000
 CELL| Angle (b,c), alpha [degree]:                                    90.000000
 CELL| Angle (a,c), beta  [degree]:                                    90.000000
 CELL| Angle (a,b), gamma [degree]:                                    90.000000
 CELL| Numerically orthorhombic:                                             YES
 CELL| Periodicity                                                          NONE

 CELL_REF| Volume [angstrom^3]:                                     27000.000000
 CELL_REF| Vector a [angstrom    30.000     0.000     0.000   |a| =    30.000000
 CELL_REF| Vector b [angstrom     0.000    30.000     0.000   |b| =    30.000000
 CELL_REF| Vector c [angstrom     0.000     0.000    30.000   |c| =    30.000000
 CELL_REF| Angle (b,c), alpha [degree]:                                90.000000
 CELL_REF| Angle (a,c), beta  [degree]:                                90.000000
 CELL_REF| Angle (a,b), gamma [degree]:                                90.000000
 CELL_REF| Numerically orthorhombic:                                         YES
 CELL_REF| Periodicity                                                      NONE

 *******************************************************************************
 *******************************************************************************
 **                                                                           **
 **     #####                         ##              ##                      **
 **    ##   ##            ##          ##              ##                      **
 **   ##     ##                       ##            ######                    **
 **   ##     ##  ##   ##  ##   #####  ##  ##   ####   ##    #####    #####    **
 **   ##     ##  ##   ##  ##  ##      ## ##   ##      ##   ##   ##  ##   ##   **
 **   ##  ## ##  ##   ##  ##  ##      ####     ###    ##   ######   ######    **
 **    ##  ###   ##   ##  ##  ##      ## ##      ##   ##   ##       ##        **
 **     #######   #####   ##   #####  ##  ##  ####    ##    #####   ##        **
 **           ##                                                    ##        **
 **                                                                           **
 **                                                ... make the atoms dance   **
 **                                                                           **
 **            Copyright (C) by CP2K developers group (2000-2023)             **
 **                      J. Chem. Phys. 152, 194103 (2020)                    **
 **                                                                           **
 *******************************************************************************

 DFT| Spin restricted Kohn-Sham (RKS) calculation                            RKS
 DFT| Multiplicity                                                             1
 DFT| Number of spin states                                                    1
 DFT| Charge                                                                   0
 DFT| Self-interaction correction (SIC)                                       NO
 DFT| Cutoffs: density                                              1.000000E-10
 DFT|          gradient                                             1.000000E-10
 DFT|          tau                                                  1.000000E-10
 DFT|          cutoff_smoothing_range                               0.000000E+00
 DFT| XC density smoothing                                                  NONE
 DFT| XC derivatives                                                          PW

 FUNCTIONAL| PBE:
 FUNCTIONAL| J.P.Perdew, K.Burke, M.Ernzerhof, Phys. Rev. Letter, vol. 77, n 18,
 FUNCTIONAL|  pp. 3865-3868, (1996)sx=0.750sc=1.000{spin unpolarized}           


 QS| Method:                                                                 GPW
 QS| Density plane wave grid type                        NON-SPHERICAL FULLSPACE
 QS| Number of grid levels:                                                    4
 QS| Density cutoff [a.u.]:                                                250.0
 QS| Multi grid cutoff [a.u.]: 1) grid level                               250.0
 QS|                           2) grid level                                83.3
 QS|                           3) grid level                                27.8
 QS|                           4) grid level                                 9.3
 QS| Grid level progression factor:                                          3.0
 QS| Relative density cutoff [a.u.]:                                        35.0
 QS| Interaction thresholds: eps_pgf_orb:                                1.0E-40
 QS|                         eps_filter_matrix:                          0.0E+00
 QS|                         eps_core_charge:                            1.0E-12
 QS|                         eps_rho_gspace:                             1.0E-10
 QS|                         eps_rho_rspace:                             1.0E-10
 QS|                         eps_gvg_rspace:                             1.0E-05
 QS|                         eps_ppl:                                    1.0E-02
 QS|                         eps_ppnl:                                   1.0E-07


 ATOMIC KIND INFORMATION

  1. Atomic kind: O                                     Number of atoms:       3

     Orbital Basis Set                                   TZVP-MOLOPT-PBE0-GTH-q6

       Number of orbital shell sets:                                           1
       Number of orbital shells:                                               7
       Number of primitive Cartesian functions:                                5
       Number of Cartesian basis functions:                                   18
       Number of spherical basis functions:                                   17
       Norm type:                                                              2

       Normalised Cartesian orbitals:

                        Set   Shell   Orbital            Exponent    Coefficient

                          1       1    2s               10.340824      -0.389977
                                                         3.648643      -0.175590
                                                         1.255036       0.325195
                                                         0.439367       0.217208
                                                         0.142955       0.036860

                          1       2    3s               10.340824       0.439751
                                                         3.648643       0.252390
                                                         1.255036      -0.403214
                                                         0.439367      -0.041268
                                                         0.142955       0.198772

                          1       3    4s               10.340824      -2.407744
                                                         3.648643      -2.077801
                                                         1.255036       2.124293
                                                         0.439367      -0.912766
                                                         0.142955       0.159606

                          1       4    3px              10.340824      -1.565341
                                                         3.648643      -1.418802
                                                         1.255036      -0.719847
                                                         0.439367      -0.210399
                                                         0.142955      -0.027187
                          1       4    3py              10.340824      -1.565341
                                                         3.648643      -1.418802
                                                         1.255036      -0.719847
                                                         0.439367      -0.210399
                                                         0.142955      -0.027187
                          1       4    3pz              10.340824      -1.565341
                                                         3.648643      -1.418802
                                                         1.255036      -0.719847
                                                         0.439367      -0.210399
                                                         0.142955      -0.027187

                          1       5    4px              10.340824       1.698128
                                                         3.648643       1.264183
                                                         1.255036       0.854862
                                                         0.439367      -0.008113
                                                         0.142955      -0.117568
                          1       5    4py              10.340824       1.698128
                                                         3.648643       1.264183
                                                         1.255036       0.854862
                                                         0.439367      -0.008113
                                                         0.142955      -0.117568
                          1       5    4pz              10.340824       1.698128
                                                         3.648643       1.264183
                                                         1.255036       0.854862
                                                         0.439367      -0.008113
                                                         0.142955      -0.117568

                          1       6    5px              10.340824       2.727797
                                                         3.648643       2.225417
                                                         1.255036       2.058206
                                                         0.439367      -0.758146
                                                         0.142955       0.076848
                          1       6    5py              10.340824       2.727797
                                                         3.648643       2.225417
                                                         1.255036       2.058206
                                                         0.439367      -0.758146
                                                         0.142955       0.076848
                          1       6    5pz              10.340824       2.727797
                                                         3.648643       2.225417
                                                         1.255036       2.058206
                                                         0.439367      -0.758146
                                                         0.142955       0.076848

                          1       7    4dx2             10.340824      -0.011152
                                                         3.648643       0.593882
                                                         1.255036       1.364830
                                                         0.439367       0.210109
                                                         0.142955      -0.000900
                          1       7    4dxy             10.340824      -0.019316
                                                         3.648643       1.028633
                                                         1.255036       2.363955
                                                         0.439367       0.363920
                                                         0.142955      -0.001559
                          1       7    4dxz             10.340824      -0.019316
                                                         3.648643       1.028633
                                                         1.255036       2.363955
                                                         0.439367       0.363920
                                                         0.142955      -0.001559
                          1       7    4dy2             10.340824      -0.011152
                                                         3.648643       0.593882
                                                         1.255036       1.364830
                                                         0.439367       0.210109
                                                         0.142955      -0.000900
                          1       7    4dyz             10.340824      -0.019316
                                                         3.648643       1.028633
                                                         1.255036       2.363955
                                                         0.439367       0.363920
                                                         0.142955      -0.001559
                          1       7    4dz2             10.340824      -0.011152
                                                         3.648643       0.593882
                                                         1.255036       1.364830
                                                         0.439367       0.210109
                                                         0.142955      -0.000900

     Auxiliary Fit Basis Set                                         admm-tzp-q6

       Number of orbital shell sets:                                           7
       Number of orbital shells:                                               7
       Number of primitive Cartesian functions:                                9
       Number of Cartesian basis functions:                                   18
       Number of spherical basis functions:                                   17
       Norm type:                                                              2

       Normalised Cartesian orbitals:

                        Set   Shell   Orbital            Exponent    Coefficient

                          1       1    1s                8.406831      -1.124375
                                                         0.967239       0.772464

                          2       1    1s                0.374656       0.341299

                          3       1    1s                0.159520       0.179896

                          4       1    1px               8.299922      -7.331094
                                                         2.387648       5.036579
                          4       1    1py               8.299922      -7.331094
                                                         2.387648       5.036579
                          4       1    1pz               8.299922      -7.331094
                                                         2.387648       5.036579

                          5       1    1px               0.720639       0.946428
                          5       1    1py               0.720639       0.946428
                          5       1    1pz               0.720639       0.946428

                          6       1    1px               0.198275       0.188592
                          6       1    1py               0.198275       0.188592
                          6       1    1pz               0.198275       0.188592

                          7       1    1dx2              1.185000       2.215218
                          7       1    1dxy              1.185000       3.836871
                          7       1    1dxz              1.185000       3.836871
                          7       1    1dy2              1.185000       2.215218
                          7       1    1dyz              1.185000       3.836871
                          7       1    1dz2              1.185000       2.215218

       Atomic covalent radius [Angstrom]:                                  0.730

       Atomic van der Waals radius [Angstrom]:                             1.520

     GTH Potential information for                                   GTH-PBE0-q6

       Description:                       Goedecker-Teter-Hutter pseudopotential
                                           Goedecker et al., PRB 54, 1703 (1996)
                                          Hartwigsen et al., PRB 58, 3641 (1998)
                                                      Krack, TCA 114, 145 (2005)

       Gaussian exponent of the core charge distribution:               8.214783
       Electronic configuration (s p d ...):                       2   4   0   0

       Parameters of the local part of the GTH pseudopotential:

                          rloc        C1          C2          C3          C4
                        0.246710  -16.655333    2.508548

       Parameters of the non-local part of the GTH pseudopotential:

                   l      r(l)      h(i,j,l)

                   0    0.221002   18.343705

  2. Atomic kind: N                                     Number of atoms:       1

     Orbital Basis Set                                   TZVP-MOLOPT-PBE0-GTH-q5

       Number of orbital shell sets:                                           1
       Number of orbital shells:                                               7
       Number of primitive Cartesian functions:                                5
       Number of Cartesian basis functions:                                   18
       Number of spherical basis functions:                                   17
       Norm type:                                                              2

       Normalised Cartesian orbitals:

                        Set   Shell   Orbital            Exponent    Coefficient

                          1       1    2s                7.731912      -0.313182
                                                         2.850571      -0.166535
                                                         1.003306       0.247465
                                                         0.371727       0.196330
                                                         0.123237       0.036870

                          1       2    3s                7.731912       0.418226
                                                         2.850571       0.287670
                                                         1.003306      -0.363823
                                                         0.371727      -0.060570
                                                         0.123237       0.185518

                          1       3    4s                7.731912      -2.356221
                                                         2.850571      -1.374815
                                                         1.003306       2.070490
                                                         0.371727      -0.833331
                                                         0.123237       0.152714

                          1       4    3px               7.731912      -1.165756
                                                         2.850571      -1.052643
                                                         1.003306      -0.600184
                                                         0.371727      -0.169887
                                                         0.123237      -0.014373
                          1       4    3py               7.731912      -1.165756
                                                         2.850571      -1.052643
                                                         1.003306      -0.600184
                                                         0.371727      -0.169887
                                                         0.123237      -0.014373
                          1       4    3pz               7.731912      -1.165756
                                                         2.850571      -1.052643
                                                         1.003306      -0.600184
                                                         0.371727      -0.169887
                                                         0.123237      -0.014373

                          1       5    4px               7.731912       0.906026
                                                         2.850571       0.687835
                                                         1.003306       0.521535
                                                         0.371727      -0.051375
                                                         0.123237      -0.098659
                          1       5    4py               7.731912       0.906026
                                                         2.850571       0.687835
                                                         1.003306       0.521535
                                                         0.371727      -0.051375
                                                         0.123237      -0.098659
                          1       5    4pz               7.731912       0.906026
                                                         2.850571       0.687835
                                                         1.003306       0.521535
                                                         0.371727      -0.051375
                                                         0.123237      -0.098659

                          1       6    5px               7.731912       2.256402
                                                         2.850571       2.115285
                                                         1.003306       1.429059
                                                         0.371727      -0.598497
                                                         0.123237       0.066063
                          1       6    5py               7.731912       2.256402
                                                         2.850571       2.115285
                                                         1.003306       1.429059
                                                         0.371727      -0.598497
                                                         0.123237       0.066063
                          1       6    5pz               7.731912       2.256402
                                                         2.850571       2.115285
                                                         1.003306       1.429059
                                                         0.371727      -0.598497
                                                         0.123237       0.066063

                          1       7    4dx2              7.731912      -0.315878
                                                         2.850571       0.616541
                                                         1.003306       0.938985
                                                         0.371727       0.132048
                                                         0.123237       0.003785
                          1       7    4dxy              7.731912      -0.547116
                                                         2.850571       1.067881
                                                         1.003306       1.626371
                                                         0.371727       0.228715
                                                         0.123237       0.006557
                          1       7    4dxz              7.731912      -0.547116
                                                         2.850571       1.067881
                                                         1.003306       1.626371
                                                         0.371727       0.228715
                                                         0.123237       0.006557
                          1       7    4dy2              7.731912      -0.315878
                                                         2.850571       0.616541
                                                         1.003306       0.938985
                                                         0.371727       0.132048
                                                         0.123237       0.003785
                          1       7    4dyz              7.731912      -0.547116
                                                         2.850571       1.067881
                                                         1.003306       1.626371
                                                         0.371727       0.228715
                                                         0.123237       0.006557
                          1       7    4dz2              7.731912      -0.315878
                                                         2.850571       0.616541
                                                         1.003306       0.938985
                                                         0.371727       0.132048
                                                         0.123237       0.003785

     Auxiliary Fit Basis Set                                         admm-tzp-q5

       Number of orbital shell sets:                                           7
       Number of orbital shells:                                               7
       Number of primitive Cartesian functions:                                9
       Number of Cartesian basis functions:                                   18
       Number of spherical basis functions:                                   17
       Norm type:                                                              2

       Normalised Cartesian orbitals:

                        Set   Shell   Orbital            Exponent    Coefficient

                          1       1    1s                6.213162      -0.926209
                                                         0.716616       0.618274

                          2       1    1s                0.318713       0.302315

                          3       1    1s                0.156356       0.177213

                          4       1    1px               6.434402      -5.795363
                                                         1.908664       3.868591
                          4       1    1py               6.434402      -5.795363
                                                         1.908664       3.868591
                          4       1    1pz               6.434402      -5.795363
                                                         1.908664       3.868591

                          5       1    1px               0.596798       0.747695
                          5       1    1py               0.596798       0.747695
                          5       1    1pz               0.596798       0.747695

                          6       1    1px               0.168824       0.154253
                          6       1    1py               0.168824       0.154253
                          6       1    1pz               0.168824       0.154253

                          7       1    1dx2              0.817000       1.155575
                          7       1    1dxy              0.817000       2.001514
                          7       1    1dxz              0.817000       2.001514
                          7       1    1dy2              0.817000       1.155575
                          7       1    1dyz              0.817000       2.001514
                          7       1    1dz2              0.817000       1.155575

       Atomic covalent radius [Angstrom]:                                  0.750

       Atomic van der Waals radius [Angstrom]:                             1.550

     GTH Potential information for                                   GTH-PBE0-q5

       Description:                       Goedecker-Teter-Hutter pseudopotential
                                           Goedecker et al., PRB 54, 1703 (1996)
                                          Hartwigsen et al., PRB 58, 3641 (1998)
                                                      Krack, TCA 114, 145 (2005)

       Gaussian exponent of the core charge distribution:               6.196924
       Electronic configuration (s p d ...):                       2   3   0   0

       Parameters of the local part of the GTH pseudopotential:

                          rloc        C1          C2          C3          C4
                        0.284051  -12.396524    1.863724

       Parameters of the non-local part of the GTH pseudopotential:

                   l      r(l)      h(i,j,l)

                   0    0.255381   13.630734

  3. Atomic kind: C                                     Number of atoms:      24

     Orbital Basis Set                                   TZVP-MOLOPT-PBE0-GTH-q4

       Number of orbital shell sets:                                           1
       Number of orbital shells:                                               7
       Number of primitive Cartesian functions:                                5
       Number of Cartesian basis functions:                                   18
       Number of spherical basis functions:                                   17
       Norm type:                                                              2

       Normalised Cartesian orbitals:

                        Set   Shell   Orbital            Exponent    Coefficient

                          1       1    2s                5.376496      -0.218993
                                                         1.952413      -0.108276
                                                         0.698843       0.191100
                                                         0.255444       0.136636
                                                         0.087781       0.032851

                          1       2    3s                5.376496       0.549256
                                                         1.952413       0.351454
                                                         0.698843      -0.348382
                                                         0.255444      -0.039089
                                                         0.087781       0.141653

                          1       3    4s                5.376496      -2.562342
                                                         1.952413      -0.418475
                                                         0.698843       1.182996
                                                         0.255444      -0.576737
                                                         0.087781       0.128088

                          1       4    3px               5.376496      -0.760366
                                                         1.952413      -0.648237
                                                         0.698843      -0.392763
                                                         0.255444      -0.102799
                                                         0.087781      -0.009502
                          1       4    3py               5.376496      -0.760366
                                                         1.952413      -0.648237
                                                         0.698843      -0.392763
                                                         0.255444      -0.102799
                                                         0.087781      -0.009502
                          1       4    3pz               5.376496      -0.760366
                                                         1.952413      -0.648237
                                                         0.698843      -0.392763
                                                         0.255444      -0.102799
                                                         0.087781      -0.009502

                          1       5    4px               5.376496       0.859426
                                                         1.952413       0.720936
                                                         0.698843       0.438762
                                                         0.255444      -0.098659
                                                         0.087781      -0.050947
                          1       5    4py               5.376496       0.859426
                                                         1.952413       0.720936
                                                         0.698843       0.438762
                                                         0.255444      -0.098659
                                                         0.087781      -0.050947
                          1       5    4pz               5.376496       0.859426
                                                         1.952413       0.720936
                                                         0.698843       0.438762
                                                         0.255444      -0.098659
                                                         0.087781      -0.050947

                          1       6    5px               5.376496       1.787729
                                                         1.952413       1.915268
                                                         0.698843       0.387524
                                                         0.255444      -0.295602
                                                         0.087781       0.070933
                          1       6    5py               5.376496       1.787729
                                                         1.952413       1.915268
                                                         0.698843       0.387524
                                                         0.255444      -0.295602
                                                         0.087781       0.070933
                          1       6    5pz               5.376496       1.787729
                                                         1.952413       1.915268
                                                         0.698843       0.387524
                                                         0.255444      -0.295602
                                                         0.087781       0.070933

                          1       7    4dx2              5.376496      -0.736044
                                                         1.952413       0.844054
                                                         0.698843       0.492915
                                                         0.255444       0.056751
                                                         0.087781       0.003197
                          1       7    4dxy              5.376496      -1.274866
                                                         1.952413       1.461945
                                                         0.698843       0.853755
                                                         0.255444       0.098295
                                                         0.087781       0.005538
                          1       7    4dxz              5.376496      -1.274866
                                                         1.952413       1.461945
                                                         0.698843       0.853755
                                                         0.255444       0.098295
                                                         0.087781       0.005538
                          1       7    4dy2              5.376496      -0.736044
                                                         1.952413       0.844054
                                                         0.698843       0.492915
                                                         0.255444       0.056751
                                                         0.087781       0.003197
                          1       7    4dyz              5.376496      -1.274866
                                                         1.952413       1.461945
                                                         0.698843       0.853755
                                                         0.255444       0.098295
                                                         0.087781       0.005538
                          1       7    4dz2              5.376496      -0.736044
                                                         1.952413       0.844054
                                                         0.698843       0.492915
                                                         0.255444       0.056751
                                                         0.087781       0.003197

     Auxiliary Fit Basis Set                                         admm-tzp-q4

       Number of orbital shell sets:                                           7
       Number of orbital shells:                                               7
       Number of primitive Cartesian functions:                                9
       Number of Cartesian basis functions:                                   18
       Number of spherical basis functions:                                   17
       Norm type:                                                              2

       Normalised Cartesian orbitals:

                        Set   Shell   Orbital            Exponent    Coefficient

                          1       1    1s                8.477503       0.595236
                                                         3.577003       1.575378

                          2       1    1s                0.495726       0.421057

                          3       1    1s                0.159172       0.179601

                          4       1    1px               4.986355       0.952283
                                                         1.664384       2.520356
                          4       1    1py               4.986355       0.952283
                                                         1.664384       2.520356
                          4       1    1pz               4.986355       0.952283
                                                         1.664384       2.520356

                          5       1    1px               0.555716       0.683921
                          5       1    1py               0.555716       0.683921
                          5       1    1pz               0.555716       0.683921

                          6       1    1px               0.158157       0.142168
                          6       1    1py               0.158157       0.142168
                          6       1    1pz               0.158157       0.142168

                          7       1    1dx2              0.550000       0.578155
                          7       1    1dxy              0.550000       1.001394
                          7       1    1dxz              0.550000       1.001394
                          7       1    1dy2              0.550000       0.578155
                          7       1    1dyz              0.550000       1.001394
                          7       1    1dz2              0.550000       0.578155

       Atomic covalent radius [Angstrom]:                                  0.770

       Atomic van der Waals radius [Angstrom]:                             1.700

     GTH Potential information for                                   GTH-PBE0-q4

       Description:                       Goedecker-Teter-Hutter pseudopotential
                                           Goedecker et al., PRB 54, 1703 (1996)
                                          Hartwigsen et al., PRB 58, 3641 (1998)
                                                      Krack, TCA 114, 145 (2005)

       Gaussian exponent of the core charge distribution:               4.321387
       Electronic configuration (s p d ...):                       2   2   0   0

       Parameters of the local part of the GTH pseudopotential:

                          rloc        C1          C2          C3          C4
                        0.340152   -8.756260    1.332124

       Parameters of the non-local part of the GTH pseudopotential:

                   l      r(l)      h(i,j,l)

                   0    0.302558    9.589804

  4. Atomic kind: H                                     Number of atoms:      15

     Orbital Basis Set                                   TZVP-MOLOPT-PBE0-GTH-q1

       Number of orbital shell sets:                                           1
       Number of orbital shells:                                               4
       Number of primitive Cartesian functions:                                5
       Number of Cartesian basis functions:                                    6
       Number of spherical basis functions:                                    6
       Norm type:                                                              2

       Normalised Cartesian orbitals:

                        Set   Shell   Orbital            Exponent    Coefficient

                          1       1    2s                9.403766       0.123674
                                                         2.192362       0.168611
                                                         0.707857       0.149725
                                                         0.374957       0.108856
                                                         0.151426       0.065049

                          1       2    3s                9.403766      -0.608614
                                                         2.192362      -1.030992
                                                         0.707857      -0.715321
                                                         0.374957       0.952708
                                                         0.151426      -0.195383

                          1       3    4s                9.403766      -0.406975
                                                         2.192362      -0.501267
                                                         0.707857      -0.409597
                                                         0.374957      -0.047909
                                                         0.151426       0.139022

                          1       4    3px               9.403766      -1.346673
                                                         2.192362       0.842999
                                                         0.707857       0.270790
                                                         0.374957       0.128277
                                                         0.151426       0.052890
                          1       4    3py               9.403766      -1.346673
                                                         2.192362       0.842999
                                                         0.707857       0.270790
                                                         0.374957       0.128277
                                                         0.151426       0.052890
                          1       4    3pz               9.403766      -1.346673
                                                         2.192362       0.842999
                                                         0.707857       0.270790
                                                         0.374957       0.128277
                                                         0.151426       0.052890

     Auxiliary Fit Basis Set                                         admm-tzp-q1

       Number of orbital shell sets:                                           4
       Number of orbital shells:                                               4
       Number of primitive Cartesian functions:                                5
       Number of Cartesian basis functions:                                    6
       Number of spherical basis functions:                                    6
       Norm type:                                                              2

       Normalised Cartesian orbitals:

                        Set   Shell   Orbital            Exponent    Coefficient

                          1       1    1s                9.284181       0.722156
                                                         2.188955       1.100335

                          2       1    1s                0.569305       0.467109

                          3       1    1s                0.136639       0.160173

                          4       1    1px               0.727000       0.956881
                          4       1    1py               0.727000       0.956881
                          4       1    1pz               0.727000       0.956881

       Atomic covalent radius [Angstrom]:                                  0.320

       Atomic van der Waals radius [Angstrom]:                             1.090

     GTH Potential information for                                   GTH-PBE0-q1

       Description:                       Goedecker-Teter-Hutter pseudopotential
                                           Goedecker et al., PRB 54, 1703 (1996)
                                          Hartwigsen et al., PRB 58, 3641 (1998)
                                                      Krack, TCA 114, 145 (2005)

       Gaussian exponent of the core charge distribution:              12.438305
       Electronic configuration (s p d ...):                       1   0   0   0

       Parameters of the local part of the GTH pseudopotential:

                          rloc        C1          C2          C3          C4
                        0.200495   -4.177803    0.724039

  5. Atomic kind: F                                     Number of atoms:       6

     Orbital Basis Set                                   TZVP-MOLOPT-PBE0-GTH-q7

       Number of orbital shell sets:                                           1
       Number of orbital shells:                                               7
       Number of primitive Cartesian functions:                                5
       Number of Cartesian basis functions:                                   18
       Number of spherical basis functions:                                   17
       Norm type:                                                              2

       Normalised Cartesian orbitals:

                        Set   Shell   Orbital            Exponent    Coefficient

                          1       1    2s               13.315019       0.499506
                                                         4.625120       0.230698
                                                         1.622723      -0.431362
                                                         0.552162      -0.274170
                                                         0.173303      -0.029246

                          1       2    3s               13.315019      -0.307898
                                                         4.625120      -0.142814
                                                         1.622723       0.200427
                                                         0.552162       0.061810
                                                         0.173303      -0.221046

                          1       3    4s               13.315019      -2.887914
                                                         4.625120      -0.069004
                                                         1.622723      -0.845102
                                                         0.552162       0.222846
                                                         0.173303      -0.009491

                          1       4    3px              13.315019      -2.268354
                                                         4.625120      -1.929312
                                                         1.622723      -0.977371
                                                         0.552162      -0.282701
                                                         0.173303      -0.035518
                          1       4    3py              13.315019      -2.268354
                                                         4.625120      -1.929312
                                                         1.622723      -0.977371
                                                         0.552162      -0.282701
                                                         0.173303      -0.035518
                          1       4    3pz              13.315019      -2.268354
                                                         4.625120      -1.929312
                                                         1.622723      -0.977371
                                                         0.552162      -0.282701
                                                         0.173303      -0.035518

                          1       5    4px              13.315019       1.926418
                                                         4.625120       1.392974
                                                         1.622723       0.830075
                                                         0.552162       0.141499
                                                         0.173303      -0.170240
                          1       5    4py              13.315019       1.926418
                                                         4.625120       1.392974
                                                         1.622723       0.830075
                                                         0.552162       0.141499
                                                         0.173303      -0.170240
                          1       5    4pz              13.315019       1.926418
                                                         4.625120       1.392974
                                                         1.622723       0.830075
                                                         0.552162       0.141499
                                                         0.173303      -0.170240

                          1       6    5px              13.315019       3.596517
                                                         4.625120       2.849145
                                                         1.622723       2.652714
                                                         0.552162      -0.770748
                                                         0.173303       0.019979
                          1       6    5py              13.315019       3.596517
                                                         4.625120       2.849145
                                                         1.622723       2.652714
                                                         0.552162      -0.770748
                                                         0.173303       0.019979
                          1       6    5pz              13.315019       3.596517
                                                         4.625120       2.849145
                                                         1.622723       2.652714
                                                         0.552162      -0.770748
                                                         0.173303       0.019979

                          1       7    4dx2             13.315019       0.600589
                                                         4.625120       0.444203
                                                         1.622723       1.624169
                                                         0.552162       0.397328
                                                         0.173303      -0.001351
                          1       7    4dxy             13.315019       1.040250
                                                         4.625120       0.769381
                                                         1.622723       2.813144
                                                         0.552162       0.688193
                                                         0.173303      -0.002340
                          1       7    4dxz             13.315019       1.040250
                                                         4.625120       0.769381
                                                         1.622723       2.813144
                                                         0.552162       0.688193
                                                         0.173303      -0.002340
                          1       7    4dy2             13.315019       0.600589
                                                         4.625120       0.444203
                                                         1.622723       1.624169
                                                         0.552162       0.397328
                                                         0.173303      -0.001351
                          1       7    4dyz             13.315019       1.040250
                                                         4.625120       0.769381
                                                         1.622723       2.813144
                                                         0.552162       0.688193
                                                         0.173303      -0.002340
                          1       7    4dz2             13.315019       0.600589
                                                         4.625120       0.444203
                                                         1.622723       1.624169
                                                         0.552162       0.397328
                                                         0.173303      -0.001351

     Auxiliary Fit Basis Set                                         admm-tzp-q7

       Number of orbital shell sets:                                           7
       Number of orbital shells:                                               7
       Number of primitive Cartesian functions:                                9
       Number of Cartesian basis functions:                                   18
       Number of spherical basis functions:                                   17
       Norm type:                                                              2

       Normalised Cartesian orbitals:

                        Set   Shell   Orbital            Exponent    Coefficient

                          1       1    1s               10.766917      -1.351007
                                                         1.253412       0.939129

                          2       1    1s                0.467834       0.403161

                          3       1    1s                0.185465       0.201421

                          4       1    1px              11.043255     -10.224217
                                                         3.155367       7.107185
                          4       1    1py              11.043255     -10.224217
                                                         3.155367       7.107185
                          4       1    1pz              11.043255     -10.224217
                                                         3.155367       7.107185

                          5       1    1px               0.944786       1.327722
                          5       1    1py               0.944786       1.327722
                          5       1    1pz               0.944786       1.327722

                          6       1    1px               0.256896       0.260697
                          6       1    1py               0.256896       0.260697
                          6       1    1pz               0.256896       0.260697

                          7       1    1dx2              1.640000       3.911886
                          7       1    1dxy              1.640000       6.775585
                          7       1    1dxz              1.640000       6.775585
                          7       1    1dy2              1.640000       3.911886
                          7       1    1dyz              1.640000       6.775585
                          7       1    1dz2              1.640000       3.911886

       Atomic covalent radius [Angstrom]:                                  0.720

       Atomic van der Waals radius [Angstrom]:                             1.470

     GTH Potential information for                                   GTH-PBE0-q7

       Description:                       Goedecker-Teter-Hutter pseudopotential
                                           Goedecker et al., PRB 54, 1703 (1996)
                                          Hartwigsen et al., PRB 58, 3641 (1998)
                                                      Krack, TCA 114, 145 (2005)

       Gaussian exponent of the core charge distribution:              11.259691
       Electronic configuration (s p d ...):                       2   5   0   0

       Parameters of the local part of the GTH pseudopotential:

                          rloc        C1          C2          C3          C4
                        0.210728  -21.776680    3.190005

       Parameters of the non-local part of the GTH pseudopotential:

                   l      r(l)      h(i,j,l)

                   0    0.194875   23.733764


 MOLECULE KIND INFORMATION


 All atoms are their own molecule, skipping detailed information


 TOTAL NUMBERS AND MAXIMUM NUMBERS

  Total number of            - Atomic kinds:                                   5
                             - Atoms:                                         49
                             - Shell sets:                                    49
                             - Shells:                                       298
                             - Primitive Cartesian functions:                245
                             - Cartesian basis functions:                    702
                             - Spherical basis functions:                    668

  Maximum angular momentum of- Orbital basis functions:                        2
                             - Local part of the GTH pseudopotential:          2
                             - Non-local part of the GTH pseudopotential:      0

  AUX_FIT ADMM-Basis: 
  Total number of            - Shell sets:                                   298
                             - Shells:                                       298
                             - Primitive Cartesian functions:                381
                             - Cartesian basis functions:                    702
                             - Spherical basis functions:                    668
                               Maximum angular momentum                        2


 MODULE QUICKSTEP: ATOMIC COORDINATES IN ANGSTROM

   Atom Kind Element         X             Y             Z       Z(eff)     Mass
      1    1 O     8     13.201576     11.904600     12.741268   6.0000  15.9994
      2    1 O     8      7.439763     17.118152      9.617650   6.0000  15.9994
      3    1 O     8     22.385014     16.443635     20.279294   6.0000  15.9994
      4    2 N     7     17.630281     14.177014     16.670739   5.0000  14.0067
      5    3 C     6     10.232731     16.034806     11.723949   4.0000  12.0107
      6    4 H     1     10.956844     16.473408     12.397951   1.0000   1.0079
      7    3 C     6      9.281159     16.850088     11.142091   4.0000  12.0107
      8    4 H     1      9.248548     17.911652     11.345417   1.0000   1.0079
      9    3 C     6      8.357696     16.291797     10.273312   4.0000  12.0107
     10    3 C     6      8.364757     14.943114      9.979478   4.0000  12.0107
     11    4 H     1      7.632130     14.541759      9.292456   1.0000   1.0079
     12    3 C     6      9.325883     14.137713     10.567383   4.0000  12.0107
     13    4 H     1      9.348503     13.078954     10.339393   1.0000   1.0079
     14    3 C     6     10.275578     14.665513     11.443962   4.0000  12.0107
     15    3 C     6     11.287285     13.767637     12.000182   4.0000  12.0107
     16    4 H     1     11.223264     12.726418     11.696516   1.0000   1.0079
     17    3 C     6     12.297204     14.077493     12.814152   4.0000  12.0107
     18    4 H     1     12.460494     15.088938     13.160807   1.0000   1.0079
     19    3 C     6     13.272614     13.026728     13.201194   4.0000  12.0107
     20    3 C     6     14.380855     13.388072     14.133184   4.0000  12.0107
     21    3 C     6     15.507597     12.564443     14.155756   4.0000  12.0107
     22    4 H     1     15.524592     11.703984     13.499907   1.0000   1.0079
     23    3 C     6     16.563624     12.838961     14.997818   4.0000  12.0107
     24    4 H     1     17.442908     12.208321     15.020526   1.0000   1.0079
     25    3 C     6     16.522264     13.950814     15.841525   4.0000  12.0107
     26    3 C     6     15.379871     14.751416     15.856263   4.0000  12.0107
     27    4 H     1     15.306158     15.572519     16.558205   1.0000   1.0079
     28    3 C     6     14.326047     14.475948     15.000687   4.0000  12.0107
     29    4 H     1     13.443840     15.101767     15.041353   1.0000   1.0079
     30    3 C     6     18.024647     15.358662     16.901334   4.0000  12.0107
     31    4 H     1     17.545091     16.230645     16.439442   1.0000   1.0079
     32    3 C     6     19.164907     15.642735     17.780026   4.0000  12.0107
     33    3 C     6     19.925086     14.605681     18.322655   4.0000  12.0107
     34    4 H     1     19.653319     13.585859     18.085437   1.0000   1.0079
     35    3 C     6     21.006578     14.886973     19.132672   4.0000  12.0107
     36    4 H     1     21.618249     14.102624     19.557898   1.0000   1.0079
     37    3 C     6     21.317962     16.208428     19.409044   4.0000  12.0107
     38    3 C     6     20.571596     17.255572     18.901384   4.0000  12.0107
     39    4 H     1     20.829168     18.275657     19.147970   1.0000   1.0079
     40    3 C     6     19.498383     16.961485     18.074511   4.0000  12.0107
     41    4 H     1     18.908316     17.770386     17.659218   1.0000   1.0079
     42    3 C     6     23.495939     17.010932     19.775909   4.0000  12.0107
     43    5 F     9     23.307844     18.296016     19.432840   7.0000  18.9984
     44    5 F     9     24.434234     16.966373     20.707545   7.0000  18.9984
     45    5 F     9     23.938908     16.377805     18.685329   7.0000  18.9984
     46    3 C     6      6.309056     17.431839     10.275960   4.0000  12.0107
     47    5 F     9      5.603354     16.347638     10.620433   7.0000  18.9984
     48    5 F     9      5.565766     18.184701      9.480770   7.0000  18.9984
     49    5 F     9      6.549483     18.118024     11.402520   7.0000  18.9984



 SCF PARAMETERS         Density guess:                                    ATOMIC
                        --------------------------------------------------------
                        max_scf:                                             120
                        max_scf_history:                                       0
                        max_diis:                                              4
                        --------------------------------------------------------
                        eps_scf:                                        1.00E-05
                        eps_scf_history:                                0.00E+00
                        eps_diis:                                       1.00E-01
                        eps_eigval:                                     1.00E-05
                        --------------------------------------------------------
                        level_shift [a.u.]:                             0.000000
                        --------------------------------------------------------
                        Outer loop SCF in use 
                        No variables optimised in outer loop
                        eps_scf                                         1.00E-05
                        max_scf                                               20
                        No outer loop optimization
                        step_size                                       5.00E-01

 PW_GRID| Information for grid number                                          1
 PW_GRID| Grid distributed over                                    90 processors
 PW_GRID| Real space group dimensions                                    90    1
 PW_GRID| the grid is blocked:                                                NO
 PW_GRID| Cutoff [a.u.]                                                    250.0
 PW_GRID| spherical cutoff:                                                   NO
 PW_GRID|   Bounds   1           -202     202                Points:         405
 PW_GRID|   Bounds   2           -202     202                Points:         405
 PW_GRID|   Bounds   3           -202     202                Points:         405
 PW_GRID| Volume element (a.u.^3)  0.2743E-02     Volume (a.u.^3)    182205.0337
 PW_GRID| Grid span                                                    FULLSPACE
 PW_GRID|   Distribution                         Average         Max         Min
 PW_GRID|   G-Vectors                           738112.5      738315      737910
 PW_GRID|   G-Rays                                1822.5        1823        1822
 PW_GRID|   Real Space Points                   738112.5      820125      656100

 PW_GRID| Information for grid number                                          2
 PW_GRID| Number of the reference grid                                         1
 PW_GRID| Grid distributed over                                    90 processors
 PW_GRID| Real space group dimensions                                    90    1
 PW_GRID| the grid is blocked:                                                NO
 PW_GRID| Cutoff [a.u.]                                                     83.3
 PW_GRID| spherical cutoff:                                                   NO
 PW_GRID|   Bounds   1           -120     119                Points:         240
 PW_GRID|   Bounds   2           -120     119                Points:         240
 PW_GRID|   Bounds   3           -120     119                Points:         240
 PW_GRID| Volume element (a.u.^3)  0.1318E-01     Volume (a.u.^3)    182205.0337
 PW_GRID| Grid span                                                    FULLSPACE
 PW_GRID|   Distribution                         Average         Max         Min
 PW_GRID|   G-Vectors                           153600.0      153840      153360
 PW_GRID|   G-Rays                                 640.0         641         639
 PW_GRID|   Real Space Points                   153600.0      172800      115200

 PW_GRID| Information for grid number                                          3
 PW_GRID| Number of the reference grid                                         1
 PW_GRID| Grid distributed over                                    90 processors
 PW_GRID| Real space group dimensions                                    90    1
 PW_GRID| the grid is blocked:                                                NO
 PW_GRID| Cutoff [a.u.]                                                     27.8
 PW_GRID| spherical cutoff:                                                   NO
 PW_GRID|   Bounds   1            -67      67                Points:         135
 PW_GRID|   Bounds   2            -67      67                Points:         135
 PW_GRID|   Bounds   3            -67      67                Points:         135
 PW_GRID| Volume element (a.u.^3)  0.7406E-01     Volume (a.u.^3)    182205.0337
 PW_GRID| Grid span                                                    FULLSPACE
 PW_GRID|   Distribution                         Average         Max         Min
 PW_GRID|   G-Vectors                            27337.5       27675       27000
 PW_GRID|   G-Rays                                 202.5         205         200
 PW_GRID|   Real Space Points                    27337.5       36450       18225

 PW_GRID| Information for grid number                                          4
 PW_GRID| Number of the reference grid                                         1
 PW_GRID| Grid distributed over                                    90 processors
 PW_GRID| Real space group dimensions                                     9   10
 PW_GRID| the grid is blocked:                                                NO
 PW_GRID| Cutoff [a.u.]                                                      9.3
 PW_GRID| spherical cutoff:                                                   NO
 PW_GRID|   Bounds   1            -40      39                Points:          80
 PW_GRID|   Bounds   2            -40      39                Points:          80
 PW_GRID|   Bounds   3            -40      39                Points:          80
 PW_GRID| Volume element (a.u.^3)  0.3559         Volume (a.u.^3)    182205.0337
 PW_GRID| Grid span                                                    FULLSPACE
 PW_GRID|   Distribution                         Average         Max         Min
 PW_GRID|   G-Vectors                             5688.9        5840        5520
 PW_GRID|   G-Rays                                  71.1          73          69
 PW_GRID|   Real Space Points                     5688.9        5760        5120

 POISSON| Solver                                                         WAVELET
 POISSON| Wavelet| Scaling function                                           40
 POISSON| Periodicity                                                       NONE

 RS_GRID| Information for grid number                                          1
 RS_GRID|   Bounds   1           -202     202                Points:         405
 RS_GRID|   Bounds   2           -202     202                Points:         405
 RS_GRID|   Bounds   3           -202     202                Points:         405
 RS_GRID| Real space distribution over                                  3 groups
 RS_GRID| Real space distribution along direction                              1
 RS_GRID| Border size                                                         27
[...]
 flops   102 x    32 x    17            941076480       0.0%    100.0%      0.0%
 flops    74 x    32 x    34            955838464       0.0%    100.0%      0.0%
 flops    32 x    32 x    17           1068154880       0.0%    100.0%      0.0%
 flops    97 x    32 x    23           1210808320       0.0%    100.0%      0.0%
 flops    80 x    32 x    32           1212416000       0.0%    100.0%      0.0%
 flops    97 x    32 x    34           1252923392       0.0%    100.0%      0.0%
 flops   102 x    32 x    23           1273221120       0.0%    100.0%      0.0%
 flops   102 x    32 x    34           1317507072       0.0%    100.0%      0.0%
 flops    32 x    32 x    23           1445150720       0.0%    100.0%      0.0%
 flops    80 x    32 x    17           1476198400       0.0%    100.0%      0.0%
 flops     6 x    17 x    32           1494846720       0.0%    100.0%      0.0%
 flops    17 x     6 x    32           1494846720       0.0%    100.0%      0.0%
 flops    32 x    32 x    34           1495416832       0.0%    100.0%      0.0%
 flops    17 x    24 x     6           1633011840       0.0%    100.0%      0.0%
 flops     6 x    24 x    17           1633011840       0.0%    100.0%      0.0%
 flops    80 x    32 x    23           1997209600       0.0%    100.0%      0.0%
 flops    80 x    32 x    34           2066677760       0.0%    100.0%      0.0%
 flops    17 x    17 x    24           3705974160       0.0%    100.0%      0.0%
 flops     6 x    32 x    17           4354698240       0.0%    100.0%      0.0%
 flops    17 x    32 x     6           4354698240       0.0%    100.0%      0.0%
 flops    17 x    17 x    32           9882597760       0.0%    100.0%      0.0%
 flops    17 x    24 x    17          10487564928       0.0%    100.0%      0.0%
 flops    17 x    32 x    17          27966839808       0.0%    100.0%      0.0%
 flops inhomo. stacks                  7986054912     100.0%      0.0%      0.0%
 flops total                       128.236689E+09       6.2%     93.8%      0.0%
 flops max/rank                      8.184578E+09       7.4%     92.6%      0.0%
 matmuls inhomo. stacks                     62685     100.0%      0.0%      0.0%
 matmuls total                            7118898       0.9%     99.1%      0.0%
 number of processed stacks               2815212       2.2%     97.8%      0.0%
 average stack size                                     1.0       2.6       0.0
 marketing flops                   139.785454E+09
 -------------------------------------------------------------------------------
 # multiplications                           4594
 max memory usage/rank               1.441628E+09
 # max total images/rank                        5
 # max 3D layers                                1
 # MPI messages exchanged                21913380
 MPI messages size (bytes):
  total size                        75.389731E+09
  min size                           0.000000E+00
  max size                          32.640000E+03
  average size                       3.440352E+03
 MPI breakdown and total messages size (bytes):
             size <=      128            16678152                        0
       128 < size <=     8192             1915327               9507421568
      8192 < size <=    32768             3319901              65879890048
     32768 < size <=   131072                   0                        0
    131072 < size <=  4194304                   0                        0
   4194304 < size <= 16777216                   0                        0
  16777216 < size                               0                        0
 -------------------------------------------------------------------------------

 *** WARNING in dbcsr_mm.F:291 :: Using a non-square number of MPI ranks ***
 *** might lead to poor performance. Used ranks: 90 Suggested: 81 169    ***

 -------------------------------------------------------------------------------
 -                                                                             -
 -                      DBCSR MESSAGE PASSING PERFORMANCE                      -
 -                                                                             -
 -------------------------------------------------------------------------------
 ROUTINE             CALLS      AVE VOLUME [Bytes]
 MP_Bcast              141                     12.
 MP_Allreduce        24137                     10.
 MP_Alltoall         36129                  24377.
 MP_ISend           514762                   2629.
 MP_IRecv           514412                   2394.
 -------------------------------------------------------------------------------

 -------------------------------------------------------------------------------
 -                                                                             -
 -                                DBM STATISTICS                               -
 -                                                                             -
 -------------------------------------------------------------------------------
    M  x    N  x    K                                          COUNT     PERCENT
 -------------------------------------------------------------------------------

 -------------------------------------------------------------------------------
 -                                                                             -
 -                                GRID STATISTICS                              -
 -                                                                             -
 -------------------------------------------------------------------------------
 LP    KERNEL             BACKEND                              COUNT     PERCENT
 1     collocate ortho    CPU                                2132164      19.41%
 2     collocate ortho    CPU                                1596957      14.54%
 3     collocate ortho    CPU                                1416083      12.89%
 0     collocate ortho    CPU                                1382749      12.59%
 4     collocate ortho    CPU                                1378869      12.55%
 4     integrate ortho    CPU                                1287708      11.72%
 3     integrate ortho    CPU                                 922497       8.40%
 0     collocate general  CPU                                 238140       2.17%
 2     integrate ortho    CPU                                 232730       2.12%
 5     integrate ortho    CPU                                 163375       1.49%
 0     integrate general  CPU                                 119070       1.08%
 1     integrate general  CPU                                 114660       1.04%
 -------------------------------------------------------------------------------

 MEMORY| Estimated peak process memory [MiB]                                1375

 -------------------------------------------------------------------------------
 ----                             MULTIGRID INFO                            ----
 -------------------------------------------------------------------------------
 count for grid        1:        6976515          cutoff [a.u.]          250.00
 count for grid        2:        3120194          cutoff [a.u.]           83.33
 count for grid        3:        1645314          cutoff [a.u.]           27.78
 count for grid        4:         199647          cutoff [a.u.]            9.26
 total gridlevel count  :       11941670

 -------------------------------------------------------------------------------
 -                                                                             -
 -                         MESSAGE PASSING PERFORMANCE                         -
 -                                                                             -
 -------------------------------------------------------------------------------

 ROUTINE             CALLS      AVE VOLUME [Bytes]
 MP_Group                4
 MP_Bcast             6858                1692881.
 MP_Allreduce        19744                    325.
 MP_Sync              1489
 MP_Alltoall          7992               23334800.
 MP_SendRecv         75294                 168840.
 MP_ISendRecv        86864                  87138.
 MP_Wait            141864
 MP_comm_split         168
 MP_ISend            49500                 523593.
 MP_IRecv            49500                 526886.
 -------------------------------------------------------------------------------


 -------------------------------------------------------------------------------
 -                                                                             -
 -                           R E F E R E N C E S                               -
 -                                                                             -
 -------------------------------------------------------------------------------
 
 CP2K version 2023.2, the CP2K developers group (2023).
 CP2K is freely available from https://www.cp2k.org/ .

 Kuehne,Thomas D.; Iannuzzi,Marcella; Del Ben,Mauro;
 Rybkin,Vladimir V.; Seewald,Patrick; Stein,Frederick; Laino,Teodoro;
 Khaliullin,Rustam Z.; Schuett,Ole; Schiffmann,Florian; Golze,Dorothea;
 Wilhelm,Jan; Chulkov,Sergey; Bani-Hashemian,Mohammad Hossein;
 Weber,Valery; Borstnik,Urban; Taillefumier,Mathieu;
 Jakobovits,Alice Shoshana; Lazzaro,Alfio; Pabst,Hans; Mueller,Tiziano;
 Schade,Robert; Guidon,Manuel; Andermatt,Samuel; Holmberg,Nico;
 Schenter,Gregory K.; Hehn,Anna; Bussy,Augustin; Belleflamme,Fabian;
 Tabacchi,Gloria; Gloess,Andreas; Lass,Michael; Bethune,Iain;
 Mundy,Christopher J.; Plessl,Christian; Watkins,Matt;
 VandeVondele,Joost; Krack,Matthias; Hutter,Juerg. 
 The Journal of Chemical Physics, 152 (19), (2020). 
 CP2K: An electronic structure and molecular dynamics software package -
 Quickstep: Efficient and accurate electronic structure calculations.
 https://doi.org/10.1063/5.0007045

 Schuett, Ole; Messmer, Peter; Hutter, Juerg; VandeVondele, Joost. 
 Electronic Structure Calculations on Graphics Processing Units, John
 Wiley & Sons, Ltd, 173-190 (2016). 
 GPU-Accelerated Sparse Matrix-Matrix Multiplication for
 Linear Scaling Density Functional Theory.
 https://doi.org/10.1002/9781118670712.ch8

 Heinecke, A; Henry, G; Hutchinson, M; Pabst, H. 
 Proceedings of Intl. Supercomputing Conference, 981-991 (2016). 
 LIBXSMM: Accelerating Small Matrix Multiplications
 by Runtime Code Generation.
 https://doi.org/10.1109/SC.2016.83

 Borstnik, U; VandeVondele, J; Weber, V; Hutter, J. 
 PARALLEL COMPUTING, 40 (5-6), 47-58 (2014). 
 Sparse matrix multiplication: The distributed block-compressed sparse
 row library.
 https://doi.org/10.1016/j.parco.2014.03.012

 Hutter, J; Iannuzzi, M; Schiffmann, F; VandeVondele, J. 
 WIREs Comput Mol Sci., 4 (1), 15-25 (2014). 
 CP2K: atomistic simulations of condensed matter systems.
 https://doi.org/10.1002/wcms.1159

 Guidon, M; Hutter, J; VandeVondele, J. 
 JOURNAL OF CHEMICAL THEORY AND COMPUTATION, 6 (8), 2348-2364 (2010). 
 Auxiliary Density Matrix Methods for Hartree-Fock Exchange Calculations.
 https://doi.org/10.1021/ct1002225

 Guidon, M; Hutter, J; VandeVondele, J. 
 JOURNAL OF CHEMICAL THEORY AND COMPUTATION, 5 (11), 3010-3021 (2009). 
 Robust Periodic Hartree-Fock Exchange for Large-Scale Simulations Using
 Gaussian Basis Sets.
 https://doi.org/10.1021/ct900494g

 Guidon, M; Schiffmann, F; Hutter, J; VandeVondele, J. 
 JOURNAL OF CHEMICAL PHYSICS, 128 (21), 214104 (2008). 
 Ab initio molecular dynamics using hybrid density functionals.
 https://doi.org/10.1063/1.2931945

 VandeVondele, J; Hutter, J. 
 JOURNAL OF CHEMICAL PHYSICS, 127 (11), 114105 (2007). 
 Gaussian basis sets for accurate calculations on molecular systems in
 gas and condensed phases.
 https://doi.org/10.1063/1.2770708

 Genovese, L; Deutsch, T; Goedecker, S. 
 JOURNAL OF CHEMICAL PHYSICS, 127 (5), 054704 (2007). 
 Efficient and accurate three-dimensional Poisson solver for surface
 problems.
 https://doi.org/10.1063/1.2754685

 Kuhne, TD; Krack, M; Mohamed, FR; Parrinello, M. 
 PHYSICAL REVIEW LETTERS, 98 (6), 066401 (2007). 
 Efficient and accurate Car-Parrinello-like approach to
 Born-Oppenheimer molecular dynamics.
 https://doi.org/10.1103/PhysRevLett.98.066401

 Genovese, L; Deutsch, T; Neelov, A; Goedecker, S; Beylkin, G. 
 JOURNAL OF CHEMICAL PHYSICS, 125 (7), 074105 (2006). 
 Efficient solution of Poisson's equation with free boundary conditions.
 https://doi.org/10.1063/1.2335442

 Krack, M. 
 THEORETICAL CHEMISTRY ACCOUNTS, 114 (1-3), 145-152 (2005). 
 Pseudopotentials for H to Kr optimized for gradient-corrected
 exchange-correlation functionals.
 https://doi.org/10.1007/s00214-005-0655-y

 VandeVondele, J; Krack, M; Mohamed, F; Parrinello, M; Chassaing, T;
 Hutter, J. COMPUTER PHYSICS COMMUNICATIONS, 167 (2), 103-128 (2005). 
 QUICKSTEP: Fast and accurate density functional calculations using a
 mixed Gaussian and plane waves approach.
 https://doi.org/10.1016/j.cpc.2004.12.014

 Frigo, M; Johnson, SG. 
 PROCEEDINGS OF THE IEEE, 93 (2), 216-231 (2005). 
 The design and implementation of FFTW3.
 https://doi.org/10.1109/JPROC.2004.840301

 Kolafa, J. 
 JOURNAL OF COMPUTATIONAL CHEMISTRY, 25 (3), 335-342 (2004). 
 Time-reversible always stable predictor-corrector method for
 molecular dynamics of polarizable molecules.
 https://doi.org/10.1002/jcc.10385

 VandeVondele, J; Hutter, J. 
 JOURNAL OF CHEMICAL PHYSICS, 118 (10), 4365-4369 (2003). 
 An efficient orbital transformation method for electronic structure
 calculations.
 https://doi.org/10.1063/1.1543154

 Hartwigsen, C; Goedecker, S; Hutter, J. 
 PHYSICAL REVIEW B, 58 (7), 3641-3662 (1998). 
 Relativistic separable dual-space Gaussian pseudopotentials from H to Rn.
 https://doi.org/10.1103/PhysRevB.58.3641

 Lippert, G; Hutter, J; Parrinello, M. 
 MOLECULAR PHYSICS, 92 (3), 477-487 (1997). 
 A hybrid Gaussian and plane wave density functional scheme.
 https://doi.org/10.1080/002689797170220

 Perdew, JP; Burke, K; Ernzerhof, M. 
 PHYSICAL REVIEW LETTERS, 77 (18), 3865-3868 (1996). 
 Generalized gradient approximation made simple.
 https://doi.org/10.1103/PhysRevLett.77.3865

 Goedecker, S; Teter, M; Hutter, J. 
 PHYSICAL REVIEW B, 54 (3), 1703-1710 (1996). 
 Separable dual-space Gaussian pseudopotentials.
 https://doi.org/10.1103/PhysRevB.54.1703

 BYRD, RH; LU, PH; NOCEDAL, J; ZHU, CY. 
 SIAM JOURNAL ON SCIENTIFIC COMPUTING, 16 (5), 1190-1208 (1995). 
 A LIMITED MEMORY ALGORITHM FOR BOUND CONSTRAINED OPTIMIZATION.
 https://doi.org/10.1137/0916069


 -------------------------------------------------------------------------------
 -                                                                             -
 -                                T I M I N G                                  -
 -                                                                             -
 -------------------------------------------------------------------------------
 SUBROUTINE                       CALLS  ASD         SELF TIME        TOTAL TIME
                                MAXIMUM       AVERAGE  MAXIMUM  AVERAGE  MAXIMUM
 CP2K                                 1  1.0    0.177    0.231 1094.159 1094.161
 cp_geo_opt                           1  2.0    0.000    0.000 1092.348 1092.349
 geoopt_lbfgs                         1  3.0    0.000    0.002 1092.348 1092.349
 cp_eval_at                          27  5.0    0.005    0.012 1092.268 1092.274
 cp_opt_gopt_step                    22  4.0    0.004    0.040 1071.053 1071.055
 qs_forces                           26  6.0    0.002    0.002 1070.968 1070.970
 qs_energies                         27  6.9    0.004    0.009  950.539  950.557
 rebuild_ks_matrix                  211 10.6    0.000    0.001  918.346  918.397
 qs_ks_build_kohn_sham_matrix       211 11.6    0.031    0.038  918.345  918.397
 scf_env_do_scf                      27  7.9    0.001    0.023  917.594  917.601
 qs_ks_update_qs_env                212 10.0    0.002    0.002  777.210  777.254
 scf_env_do_scf_inner_loop          185  9.0    0.005    0.056  743.552  743.577
 pw_transfer                       5096 15.0    0.802    0.859  452.411  466.732
 fft_wrap_pw1pw2                   5096 16.0    0.108    0.120  451.609  465.950
 fft_wrap_pw1pw2_250               3194 17.2   84.814   89.254  425.847  439.239
 fft3d_ps                          5096 18.0  161.662  182.918  301.246  318.002
 calculate_rho_elec                 423 12.3    1.207    1.303  268.887  268.952
 qs_vxc_create                      422 12.6    0.004    0.004  249.168  249.202
 xc_vxc_pw_create                   211 13.6    1.488    2.167  249.165  249.198
 xc_pw_derive                      1266 15.6    0.028    0.032  197.954  207.347
 density_rs2pw                      423 13.3    0.039    0.042  200.255  206.145
 hfx_ks_matrix                      211 12.6    0.007    0.013  203.278  203.379
 pw_poisson_solve                   211 12.6    5.080    8.346  178.719  178.726
 init_scf_loop                       27  8.9    0.001    0.006  173.899  173.907
 integrate_four_center              211 13.6   12.301   13.188  162.756  162.813
 admm_mo_calc_rho_aux               211 12.6    0.003    0.003  145.394  146.825
 qs_ks_update_qs_env_forces          26  7.0    0.000    0.000  141.239  141.252
 xc_pw_divergence                   211 14.6    0.014    0.016  130.535  139.108
 mp_alltoall_z22v                  5096 20.0  100.195  138.837  100.195  138.837
 integrate_four_center_main         211 14.6    0.345    0.560  135.264  137.761
 integrate_four_center_bin        14705 15.6  134.919  137.359  134.919  137.359
 qs_rho_update_rho_low              212 10.1    0.001    0.001  135.334  135.343
 xc_rho_set_and_dset_create         211 14.6    2.113    3.151  113.727  120.784
 rs_pw_transfer                    2643 14.6    0.069    0.087  114.637  119.737
 ps_wavelet_solve                   211 13.6   55.847   65.212   94.703   98.134
 yz_to_x                           2351 18.9   12.501   15.593   65.829   94.147
 sum_up_and_integrate               211 12.6    2.452    2.966   93.645   93.824
 integrate_v_rspace                 211 13.6    0.010    0.011   91.192   91.773
 x_to_yz                           2111 19.1   24.138   26.557   70.530   79.435
 grid_collocate_task_list           423 13.3   61.600   78.254   61.600   78.254
 potential_pw2rs                    211 14.6    0.099    0.118   76.925   77.419
 mp_alltoall_d54                    211 14.6   26.728   63.501   26.728   63.501
 mp_waitany                       49500 16.5   55.037   60.003   55.037   60.003
 rs_pw_transfer_RS2PW_250           477 15.0   12.190   14.420   40.712   46.759
 derivatives_four_center             26 11.0    0.011    0.047   40.443   40.512
 derivatives_four_center_main        26 12.0    0.078    0.169   39.829   39.863
 derivatives_four_center_bin       2796 13.0   37.446   38.764   37.446   38.764
 mp_alltoall_d11v                 13721 15.9   24.062   37.832   24.062   37.832
 pw_gather_p                       2774 17.9   33.079   36.504   33.079   36.504
 pw_scatter_p                      2322 18.2   29.674   30.955   29.674   30.955
 dbcsr_multiply_generic            4594 14.9    0.138    0.148   24.029   24.262
 rs_pw_transfer_PW2RS_250           264 15.8    7.872    8.448   23.602   24.093
 fft_wrap_pw1pw2_90                 634 16.8    2.239    2.504   17.695   22.146
 -------------------------------------------------------------------------------

 The number of warnings for this run is : 1
 
 -------------------------------------------------------------------------------
  **** **** ******  **  PROGRAM ENDED AT                 2024-03-04 11:37:32.109
 ***** ** ***  *** **   PROGRAM RAN ON                              aac15b48d4db
 **    ****   ******    PROGRAM RAN BY                                 <unknown>
 ***** **    ** ** **   PROGRAM PROCESS ID                                   538
  **** **  *******  **  PROGRAM STOPPED IN                                  /mnt
