 DBCSR| CPU Multiplication driver                                           XSMM (U)
 DBCSR| Multrec recursion limit                                              512 (U)
 DBCSR| Multiplication stack size                                           1000 (D)
 DBCSR| Maximum elements for images                                    UNLIMITED (U)
 DBCSR| Multiplicative factor virtual images                                   1 (U)
 DBCSR| Use multiplication densification                                       T (D)
 DBCSR| Multiplication size stacks                                             3 (U)
 DBCSR| Use memory pool for CPU allocation                                     F (U)
 DBCSR| Number of 3D layers                                               SINGLE (U)
 DBCSR| Use MPI memory allocation                                              F (U)
 DBCSR| Use RMA algorithm                                                      F (U)
 DBCSR| Use Communication thread                                               T (U)
 DBCSR| Communication thread load                                             83 (D)
 DBCSR| MPI: My process id                                                     0
 DBCSR| MPI: Number of processes                                              90
 DBCSR| OMP: Current number of threads                                         2
 DBCSR| OMP: Max number of threads                                             2
 DBCSR| Split modifier for TAS multiplication algorithm                  1.0E+00 (U)


  **** **** ******  **  PROGRAM STARTED AT               2024-03-05 04:41:07.323
 ***** ** ***  *** **   PROGRAM STARTED ON                          6607eaf65717
 **    ****   ******    PROGRAM STARTED BY                             <unknown>
 ***** **    ** ** **   PROGRAM PROCESS ID                                   538
  **** **  *******  **  PROGRAM STARTED IN                                  /mnt

 CP2K| version string:                                       CP2K version 2023.2
 CP2K| source code revision number:                                  git:65cca6c
 CP2K| cp2kflags: omp libint fftw3 libxc pexsi elpa parallel scalapack cosma qui
 CP2K|            p xsmm plumed2 spglib sirius libvori libbqb libtorch libvdwxc
 CP2K| is freely available from                            https://www.cp2k.org/
 CP2K| Program compiled at                          Wed Oct 18 11:40:41 UTC 2023
 CP2K| Program compiled on                                          633bb7bf566f
 CP2K| Program compiled for                                                local
 CP2K| Data directory path                                        /opt/cp2k/data
 CP2K| Input file name                                       4amp34isopbe_geo.in

 GLOBAL| Force Environment number                                              1
 GLOBAL| Basis set file name                                      GTH_BASIS_SETS
 GLOBAL| Potential file name                                           POTENTIAL
 GLOBAL| MM Potential file name                                     MM_POTENTIAL
 GLOBAL| Coordinate file name                                      __STD_INPUT__
 GLOBAL| Method name                                                        CP2K
 GLOBAL| Project name                                            4amp34isopbegeo
 GLOBAL| Run type                                                        GEO_OPT
 GLOBAL| FFT library                                                       FFTW3
 GLOBAL| Diagonalization library                                       ScaLAPACK
 GLOBAL| DGEMM library                                                      BLAS
 GLOBAL| Orthonormality check for eigenvectors                          DISABLED
 GLOBAL| Matrix multiplication library                                     COSMA
 GLOBAL| All-to-all communication in single precision                          F
 GLOBAL| FFTs using library dependent lengths                                  F
 GLOBAL| Grid backend                                                       AUTO
 GLOBAL| Global print level                                               MEDIUM
 GLOBAL| MPI I/O enabled                                                       T
 GLOBAL| Total number of message passing processes                            90
 GLOBAL| Number of threads for this process                                    2
 GLOBAL| This output is from process                                           0
 GLOBAL| Stack size for threads created by OpenMP (OMP_STACKSIZE)            16M
 GLOBAL| CPU model name                                            AMD EPYC 9B14
 GLOBAL| CPUID                                                              1003
 GLOBAL| Compiled for CPUID                                                    0

 *** HINT in environment.F:904 :: The compiler target flags (generic) used ***
 *** to build this binary cannot exploit all extensions of this CPU model  ***
 *** (x86_avx512). Consider compiler target flags as part of FCFLAGS and   ***
 *** CFLAGS (ARCH file).                                                   ***


 MEMORY| system memory details [Kb]
 MEMORY|                        rank 0           min           max       average
 MEMORY| MemTotal            365023364     365023364     365023364     365023364
 MEMORY| MemFree             351475068     351475068     351475572     351475420
 MEMORY| Buffers                 19004         19004         19004         19004
 MEMORY| Cached                 802112        802112        802112        802112
 MEMORY| Slab                   386184        386184        386184        386184
 MEMORY| SReclaimable            81172         81172         81172         81172
 MEMORY| MemLikelyFree       352377356     352377356     352377860     352377708


 *** Fundamental physical constants (SI units) ***

 *** Literature: B. J. Mohr and B. N. Taylor,
 ***             CODATA recommended values of the fundamental physical
 ***             constants: 2006, Web Version 5.1
 ***             http://physics.nist.gov/constants

 Speed of light in vacuum [m/s]                             2.99792458000000E+08
 Magnetic constant or permeability of vacuum [N/A**2]       1.25663706143592E-06
 Electric constant or permittivity of vacuum [F/m]          8.85418781762039E-12
 Planck constant (h) [J*s]                                  6.62606896000000E-34
 Planck constant (h-bar) [J*s]                              1.05457162825177E-34
 Elementary charge [C]                                      1.60217648700000E-19
 Electron mass [kg]                                         9.10938215000000E-31
 Electron g factor [ ]                                     -2.00231930436220E+00
 Proton mass [kg]                                           1.67262163700000E-27
 Fine-structure constant                                    7.29735253760000E-03
 Rydberg constant [1/m]                                     1.09737315685270E+07
 Avogadro constant [1/mol]                                  6.02214179000000E+23
 Boltzmann constant [J/K]                                   1.38065040000000E-23
 Atomic mass unit [kg]                                      1.66053878200000E-27
 Bohr radius [m]                                            5.29177208590000E-11

 *** Conversion factors ***

 [u] -> [a.u.]                                              1.82288848426455E+03
 [Angstrom] -> [Bohr] = [a.u.]                              1.88972613288564E+00
 [a.u.] = [Bohr] -> [Angstrom]                              5.29177208590000E-01
 [a.u.] -> [s]                                              2.41888432650478E-17
 [a.u.] -> [fs]                                             2.41888432650478E-02
 [a.u.] -> [J]                                              4.35974393937059E-18
 [a.u.] -> [N]                                              8.23872205491840E-08
 [a.u.] -> [K]                                              3.15774647902944E+05
 [a.u.] -> [kJ/mol]                                         2.62549961709828E+03
 [a.u.] -> [kcal/mol]                                       6.27509468713739E+02
 [a.u.] -> [Pa]                                             2.94210107994716E+13
 [a.u.] -> [bar]                                            2.94210107994716E+08
 [a.u.] -> [atm]                                            2.90362800883016E+08
 [a.u.] -> [eV]                                             2.72113838565563E+01
 [a.u.] -> [Hz]                                             6.57968392072181E+15
 [a.u.] -> [1/cm] (wave numbers)                            2.19474631370540E+05
 [a.u./Bohr**2] -> [1/cm]                                   5.14048714338585E+03
 

 CELL_TOP| Volume [angstrom^3]:                                     27000.000000
 CELL_TOP| Vector a [angstrom    30.000     0.000     0.000   |a| =    30.000000
 CELL_TOP| Vector b [angstrom     0.000    30.000     0.000   |b| =    30.000000
 CELL_TOP| Vector c [angstrom     0.000     0.000    30.000   |c| =    30.000000
 CELL_TOP| Angle (b,c), alpha [degree]:                                90.000000
 CELL_TOP| Angle (a,c), beta  [degree]:                                90.000000
 CELL_TOP| Angle (a,b), gamma [degree]:                                90.000000
 CELL_TOP| Numerically orthorhombic:                                         YES
 CELL_TOP| Periodicity                                                      NONE

 GENERATE|  Preliminary Number of Bonds generated:                             0
 GENERATE|  Achieved consistency in connectivity generation.

 CELL| Volume [angstrom^3]:                                         27000.000000
 CELL| Vector a [angstrom]:      30.000     0.000     0.000   |a| =    30.000000
 CELL| Vector b [angstrom]:       0.000    30.000     0.000   |b| =    30.000000
 CELL| Vector c [angstrom]:       0.000     0.000    30.000   |c| =    30.000000
 CELL| Angle (b,c), alpha [degree]:                                    90.000000
 CELL| Angle (a,c), beta  [degree]:                                    90.000000
 CELL| Angle (a,b), gamma [degree]:                                    90.000000
 CELL| Numerically orthorhombic:                                             YES
 CELL| Periodicity                                                          NONE

 CELL_REF| Volume [angstrom^3]:                                     27000.000000
 CELL_REF| Vector a [angstrom    30.000     0.000     0.000   |a| =    30.000000
 CELL_REF| Vector b [angstrom     0.000    30.000     0.000   |b| =    30.000000
 CELL_REF| Vector c [angstrom     0.000     0.000    30.000   |c| =    30.000000
 CELL_REF| Angle (b,c), alpha [degree]:                                90.000000
 CELL_REF| Angle (a,c), beta  [degree]:                                90.000000
 CELL_REF| Angle (a,b), gamma [degree]:                                90.000000
 CELL_REF| Numerically orthorhombic:                                         YES
 CELL_REF| Periodicity                                                      NONE

 *******************************************************************************
 *******************************************************************************
 **                                                                           **
 **     #####                         ##              ##                      **
 **    ##   ##            ##          ##              ##                      **
 **   ##     ##                       ##            ######                    **
 **   ##     ##  ##   ##  ##   #####  ##  ##   ####   ##    #####    #####    **
 **   ##     ##  ##   ##  ##  ##      ## ##   ##      ##   ##   ##  ##   ##   **
 **   ##  ## ##  ##   ##  ##  ##      ####     ###    ##   ######   ######    **
 **    ##  ###   ##   ##  ##  ##      ## ##      ##   ##   ##       ##        **
 **     #######   #####   ##   #####  ##  ##  ####    ##    #####   ##        **
 **           ##                                                    ##        **
 **                                                                           **
 **                                                ... make the atoms dance   **
 **                                                                           **
 **            Copyright (C) by CP2K developers group (2000-2023)             **
 **                      J. Chem. Phys. 152, 194103 (2020)                    **
 **                                                                           **
 *******************************************************************************

 DFT| Spin restricted Kohn-Sham (RKS) calculation                            RKS
 DFT| Multiplicity                                                             1
 DFT| Number of spin states                                                    1
 DFT| Charge                                                                   0
 DFT| Self-interaction correction (SIC)                                       NO
 DFT| Cutoffs: density                                              1.000000E-10
 DFT|          gradient                                             1.000000E-10
 DFT|          tau                                                  1.000000E-10
 DFT|          cutoff_smoothing_range                               0.000000E+00
 DFT| XC density smoothing                                                  NONE
 DFT| XC derivatives                                                          PW

 FUNCTIONAL| PBE:
 FUNCTIONAL| J.P.Perdew, K.Burke, M.Ernzerhof, Phys. Rev. Letter, vol. 77, n 18,
 FUNCTIONAL|  pp. 3865-3868, (1996){spin unpolarized}                           

 vdW POTENTIAL|                                                   Pair Potential
 vdW POTENTIAL|          DFT-D3 (Version 3.1)
 vdW POTENTIAL|          Potential Form: S. Grimme et al, JCP 132: 154104 (2010)
 vdW POTENTIAL|          BJ Damping: S. Grimme et al, JCC 32: 1456 (2011)
 vdW POTENTIAL|          Cutoff Radius [Bohr]:                             30.24
 vdW POTENTIAL|          s6 Scaling Factor:                               1.0000
 vdW POTENTIAL|          a1 Damping Factor:                               0.4289
 vdW POTENTIAL|          s8 Scaling Factor:                               0.7875
 vdW POTENTIAL|          a2 Damping Factor:                               4.4407
 vdW POTENTIAL|          Cutoff for CN calculation:                   0.1000E-05

 QS| Method:                                                                 GPW
 QS| Density plane wave grid type                        NON-SPHERICAL FULLSPACE
 QS| Number of grid levels:                                                    6
 QS| Density cutoff [a.u.]:                                                250.0
 QS| Multi grid cutoff [a.u.]: 1) grid level                               250.0
 QS|                           2) grid level                                83.3
 QS|                           3) grid level                                27.8
 QS|                           4) grid level                                 9.3
 QS|                           5) grid level                                 3.1
 QS|                           6) grid level                                 1.0
 QS| Grid level progression factor:                                          3.0
 QS| Relative density cutoff [a.u.]:                                        35.0
 QS| Interaction thresholds: eps_pgf_orb:                                1.0E-05
 QS|                         eps_filter_matrix:                          0.0E+00
 QS|                         eps_core_charge:                            1.0E-12
 QS|                         eps_rho_gspace:                             1.0E-10
 QS|                         eps_rho_rspace:                             1.0E-10
 QS|                         eps_gvg_rspace:                             1.0E-05
 QS|                         eps_ppl:                                    1.0E-02
 QS|                         eps_ppnl:                                   1.0E-07


 ATOMIC KIND INFORMATION

  1. Atomic kind: O                                     Number of atoms:       3

     Orbital Basis Set                                               TZVP-GTH-q6

       Number of orbital shell sets:                                           2
       Number of orbital shells:                                               7
       Number of primitive Cartesian functions:                                6
       Number of Cartesian basis functions:                                   18
       Number of spherical basis functions:                                   17
       Norm type:                                                              2

       Normalised Cartesian orbitals:

                        Set   Shell   Orbital            Exponent    Coefficient

                          1       1    2s               10.267442       0.404544
                                                         3.748050       0.199889
                                                         1.330834      -0.336302
                                                         0.455680      -0.246356
                                                         0.146292      -0.028287

                          1       2    3s               10.267442       0.000000
                                                         3.748050       0.000000
                                                         1.330834       0.000000
                                                         0.455680       0.395280
                                                         0.146292       0.000000

                          1       3    4s               10.267442       0.000000
                                                         3.748050       0.000000
                                                         1.330834       0.000000
                                                         0.455680       0.000000
                                                         0.146292       0.168588

                          1       4    3px              10.267442      -1.561025
                                                         3.748050      -1.394275
                                                         1.330834      -0.754014
                                                         0.455680      -0.224400
                                                         0.146292      -0.029841
                          1       4    3py              10.267442      -1.561025
                                                         3.748050      -1.394275
                                                         1.330834      -0.754014
                                                         0.455680      -0.224400
                                                         0.146292      -0.029841
                          1       4    3pz              10.267442      -1.561025
                                                         3.748050      -1.394275
                                                         1.330834      -0.754014
                                                         0.455680      -0.224400
                                                         0.146292      -0.029841

                          1       5    4px              10.267442       0.000000
                                                         3.748050       0.000000
                                                         1.330834       0.000000
                                                         0.455680       0.533661
                                                         0.146292       0.000000
                          1       5    4py              10.267442       0.000000
                                                         3.748050       0.000000
                                                         1.330834       0.000000
                                                         0.455680       0.533661
                                                         0.146292       0.000000
                          1       5    4pz              10.267442       0.000000
                                                         3.748050       0.000000
                                                         1.330834       0.000000
                                                         0.455680       0.533661
                                                         0.146292       0.000000

                          1       6    5px              10.267442       0.000000
                                                         3.748050       0.000000
                                                         1.330834       0.000000
                                                         0.455680       0.000000
                                                         0.146292       0.128963
                          1       6    5py              10.267442       0.000000
                                                         3.748050       0.000000
                                                         1.330834       0.000000
                                                         0.455680       0.000000
                                                         0.146292       0.128963
                          1       6    5pz              10.267442       0.000000
                                                         3.748050       0.000000
                                                         1.330834       0.000000
                                                         0.455680       0.000000
                                                         0.146292       0.128963

                          2       1    3dx2              1.185000       2.215218
                          2       1    3dxy              1.185000       3.836871
                          2       1    3dxz              1.185000       3.836871
                          2       1    3dy2              1.185000       2.215218
                          2       1    3dyz              1.185000       3.836871
                          2       1    3dz2              1.185000       2.215218

       Atomic covalent radius [Angstrom]:                                  0.730

       Atomic van der Waals radius [Angstrom]:                             1.520

     GTH Potential information for                                       GTH-PBE

       Description:                       Goedecker-Teter-Hutter pseudopotential
                                           Goedecker et al., PRB 54, 1703 (1996)
                                          Hartwigsen et al., PRB 58, 3641 (1998)
                                                      Krack, TCA 114, 145 (2005)

       Gaussian exponent of the core charge distribution:               8.360253
       Electronic configuration (s p d ...):                               2   4

       Parameters of the local part of the GTH pseudopotential:

                          rloc        C1          C2          C3          C4
                        0.244554  -16.667215    2.487311

       Parameters of the non-local part of the GTH pseudopotential:

                   l      r(l)      h(i,j,l)

                   0    0.220956   18.337458
                   1    0.211332

  2. Atomic kind: N                                     Number of atoms:       1

     Orbital Basis Set                                               TZVP-GTH-q5

       Number of orbital shell sets:                                           2
       Number of orbital shells:                                               7
       Number of primitive Cartesian functions:                                6
       Number of Cartesian basis functions:                                   18
       Number of spherical basis functions:                                   17
       Norm type:                                                              2

       Normalised Cartesian orbitals:

                        Set   Shell   Orbital            Exponent    Coefficient

                          1       1    2s                7.622745       0.321703
                                                         2.797061       0.161118
                                                         0.990977      -0.264934
                                                         0.341731      -0.199987
                                                         0.111682      -0.023066

                          1       2    3s                7.622745       0.000000
                                                         2.797061       0.000000
                                                         0.990977       0.000000
                                                         0.341731       0.318547
                                                         0.111682       0.000000

                          1       3    4s                7.622745       0.000000
                                                         2.797061       0.000000
                                                         0.990977       0.000000
                                                         0.341731       0.000000
                                                         0.111682       0.137689

                          1       4    3px               7.622745      -1.014025
                                                         2.797061      -0.927144
                                                         0.990977      -0.514975
                                                         0.341731      -0.158623
                                                         0.111682      -0.021774
                          1       4    3py               7.622745      -1.014025
                                                         2.797061      -0.927144
                                                         0.990977      -0.514975
                                                         0.341731      -0.158623
                                                         0.111682      -0.021774
                          1       4    3pz               7.622745      -1.014025
                                                         2.797061      -0.927144
                                                         0.990977      -0.514975
                                                         0.341731      -0.158623
                                                         0.111682      -0.021774

                          1       5    4px               7.622745       0.000000
                                                         2.797061       0.000000
                                                         0.990977       0.000000
                                                         0.341731       0.372431
                                                         0.111682       0.000000
                          1       5    4py               7.622745       0.000000
                                                         2.797061       0.000000
                                                         0.990977       0.000000
                                                         0.341731       0.372431
                                                         0.111682       0.000000
                          1       5    4pz               7.622745       0.000000
                                                         2.797061       0.000000
                                                         0.990977       0.000000
                                                         0.341731       0.372431
                                                         0.111682       0.000000

                          1       6    5px               7.622745       0.000000
                                                         2.797061       0.000000
                                                         0.990977       0.000000
                                                         0.341731       0.000000
                                                         0.111682       0.092028
                          1       6    5py               7.622745       0.000000
                                                         2.797061       0.000000
                                                         0.990977       0.000000
                                                         0.341731       0.000000
                                                         0.111682       0.092028
                          1       6    5pz               7.622745       0.000000
                                                         2.797061       0.000000
                                                         0.990977       0.000000
                                                         0.341731       0.000000
                                                         0.111682       0.092028

                          2       1    3dx2              0.817000       1.155575
                          2       1    3dxy              0.817000       2.001514
                          2       1    3dxz              0.817000       2.001514
                          2       1    3dy2              0.817000       1.155575
                          2       1    3dyz              0.817000       2.001514
                          2       1    3dz2              0.817000       1.155575

       Atomic covalent radius [Angstrom]:                                  0.750

       Atomic van der Waals radius [Angstrom]:                             1.550

     GTH Potential information for                                       GTH-PBE

       Description:                       Goedecker-Teter-Hutter pseudopotential
                                           Goedecker et al., PRB 54, 1703 (1996)
                                          Hartwigsen et al., PRB 58, 3641 (1998)
                                                      Krack, TCA 114, 145 (2005)

       Gaussian exponent of the core charge distribution:               6.208322
       Electronic configuration (s p d ...):                               2   3

       Parameters of the local part of the GTH pseudopotential:

                          rloc        C1          C2          C3          C4
                        0.283791  -12.415226    1.868096

       Parameters of the non-local part of the GTH pseudopotential:

                   l      r(l)      h(i,j,l)

                   0    0.255405   13.630263
                   1    0.245495

  3. Atomic kind: C                                     Number of atoms:      24

     Orbital Basis Set                                               TZVP-GTH-q4

       Number of orbital shell sets:                                           2
       Number of orbital shells:                                               7
       Number of primitive Cartesian functions:                                6
       Number of Cartesian basis functions:                                   18
       Number of spherical basis functions:                                   17
       Norm type:                                                              2

       Normalised Cartesian orbitals:

                        Set   Shell   Orbital            Exponent    Coefficient

                          1       1    2s                5.368566       0.245056
                                                         1.983069       0.124102
                                                         0.697835      -0.198350
                                                         0.243097      -0.156359
                                                         0.081287      -0.018192

                          1       2    3s                5.368566       0.000000
                                                         1.983069       0.000000
                                                         0.697835       0.000000
                                                         0.243097       0.246743
                                                         0.081287       0.000000

                          1       3    4s                5.368566       0.000000
                                                         1.983069       0.000000
                                                         0.697835       0.000000
                                                         0.243097       0.000000
                                                         0.081287       0.108499

                          1       4    3px               5.368566      -0.595193
                                                         1.983069      -0.567909
                                                         0.697835      -0.325466
                                                         0.243097      -0.105296
                                                         0.081287      -0.015205
                          1       4    3py               5.368566      -0.595193
                                                         1.983069      -0.567909
                                                         0.697835      -0.325466
                                                         0.243097      -0.105296
                                                         0.081287      -0.015205
                          1       4    3pz               5.368566      -0.595193
                                                         1.983069      -0.567909
                                                         0.697835      -0.325466
                                                         0.243097      -0.105296
                                                         0.081287      -0.015205

                          1       5    4px               5.368566       0.000000
                                                         1.983069       0.000000
                                                         0.697835       0.000000
                                                         0.243097       0.243312
                                                         0.081287       0.000000
                          1       5    4py               5.368566       0.000000
                                                         1.983069       0.000000
                                                         0.697835       0.000000
                                                         0.243097       0.243312
                                                         0.081287       0.000000
                          1       5    4pz               5.368566       0.000000
                                                         1.983069       0.000000
                                                         0.697835       0.000000
                                                         0.243097       0.243312
                                                         0.081287       0.000000

                          1       6    5px               5.368566       0.000000
                                                         1.983069       0.000000
                                                         0.697835       0.000000
                                                         0.243097       0.000000
                                                         0.081287       0.061868
                          1       6    5py               5.368566       0.000000
                                                         1.983069       0.000000
                                                         0.697835       0.000000
                                                         0.243097       0.000000
                                                         0.081287       0.061868
                          1       6    5pz               5.368566       0.000000
                                                         1.983069       0.000000
                                                         0.697835       0.000000
                                                         0.243097       0.000000
                                                         0.081287       0.061868

                          2       1    3dx2              0.550000       0.578155
                          2       1    3dxy              0.550000       1.001394
                          2       1    3dxz              0.550000       1.001394
                          2       1    3dy2              0.550000       0.578155
                          2       1    3dyz              0.550000       1.001394
                          2       1    3dz2              0.550000       0.578155

       Atomic covalent radius [Angstrom]:                                  0.770

       Atomic van der Waals radius [Angstrom]:                             1.700

     GTH Potential information for                                       GTH-PBE

       Description:                       Goedecker-Teter-Hutter pseudopotential
                                           Goedecker et al., PRB 54, 1703 (1996)
                                          Hartwigsen et al., PRB 58, 3641 (1998)
                                                      Krack, TCA 114, 145 (2005)

       Gaussian exponent of the core charge distribution:               4.364419
       Electronic configuration (s p d ...):                               2   2

       Parameters of the local part of the GTH pseudopotential:

                          rloc        C1          C2          C3          C4
                        0.338471   -8.803674    1.339211

       Parameters of the non-local part of the GTH pseudopotential:

                   l      r(l)      h(i,j,l)

                   0    0.302576    9.622487
                   1    0.291507

  4. Atomic kind: H                                     Number of atoms:      15

     Orbital Basis Set                                               TZVP-GTH-q1

       Number of orbital shell sets:                                           2
       Number of orbital shells:                                               4
       Number of primitive Cartesian functions:                                6
       Number of Cartesian basis functions:                                    6
       Number of spherical basis functions:                                    6
       Norm type:                                                              2

       Normalised Cartesian orbitals:

                        Set   Shell   Orbital            Exponent    Coefficient

                          1       1    1s               10.882724      -0.071340
                                                         3.096875      -0.104410
                                                         0.987452      -0.135375
                                                         0.345069      -0.133923
                                                         0.149269      -0.073092

                          1       2    2s               10.882724       0.000000
                                                         3.096875       0.000000
                                                         0.987452       0.000000
                                                         0.345069       0.320878
                                                         0.149269       0.000000

                          1       3    3s               10.882724       0.000000
                                                         3.096875       0.000000
                                                         0.987452       0.000000
                                                         0.345069       0.000000
                                                         0.149269       0.171154

                          2       1    2px               0.727000       0.956881
                          2       1    2py               0.727000       0.956881
                          2       1    2pz               0.727000       0.956881

       Atomic covalent radius [Angstrom]:                                  0.320

       Atomic van der Waals radius [Angstrom]:                             1.090

     GTH Potential information for                                       GTH-PBE

       Description:                       Goedecker-Teter-Hutter pseudopotential
                                           Goedecker et al., PRB 54, 1703 (1996)
                                          Hartwigsen et al., PRB 58, 3641 (1998)
                                                      Krack, TCA 114, 145 (2005)

       Gaussian exponent of the core charge distribution:              12.500000
       Electronic configuration (s p d ...):                                   1

       Parameters of the local part of the GTH pseudopotential:

                          rloc        C1          C2          C3          C4
                        0.200000   -4.178900    0.724463

  5. Atomic kind: F                                     Number of atoms:       6

     Orbital Basis Set                                               TZVP-GTH-q7

       Number of orbital shell sets:                                           2
       Number of orbital shells:                                               7
       Number of primitive Cartesian functions:                                6
       Number of Cartesian basis functions:                                   18
       Number of spherical basis functions:                                   17
       Norm type:                                                              2

       Normalised Cartesian orbitals:

                        Set   Shell   Orbital            Exponent    Coefficient

                          1       1    2s               13.162513       0.499791
                                                         4.797202       0.231391
                                                         1.704998      -0.412780
                                                         0.581447      -0.293250
                                                         0.184258      -0.033277

                          1       2    3s               13.162513       0.000000
                                                         4.797202       0.000000
                                                         1.704998       0.000000
                                                         0.581447       0.474562
                                                         0.184258       0.000000

                          1       3    4s               13.162513       0.000000
                                                         4.797202       0.000000
                                                         1.704998       0.000000
                                                         0.581447       0.000000
                                                         0.184258       0.200438

                          1       4    3px              13.162513      -2.230542
                                                         4.797202      -1.972071
                                                         1.704998      -1.037904
                                                         0.581447      -0.300489
                                                         0.184258      -0.039017
                          1       4    3py              13.162513      -2.230542
                                                         4.797202      -1.972071
                                                         1.704998      -1.037904
                                                         0.581447      -0.300489
                                                         0.184258      -0.039017
                          1       4    3pz              13.162513      -2.230542
                                                         4.797202      -1.972071
                                                         1.704998      -1.037904
                                                         0.581447      -0.300489
                                                         0.184258      -0.039017

                          1       5    4px              13.162513       0.000000
                                                         4.797202       0.000000
                                                         1.704998       0.000000
                                                         0.581447       0.723732
                                                         0.184258       0.000000
                          1       5    4py              13.162513       0.000000
                                                         4.797202       0.000000
                                                         1.704998       0.000000
                                                         0.581447       0.723732
                                                         0.184258       0.000000
                          1       5    4pz              13.162513       0.000000
                                                         4.797202       0.000000
                                                         1.704998       0.000000
                                                         0.581447       0.723732
                                                         0.184258       0.000000

                          1       6    5px              13.162513       0.000000
                                                         4.797202       0.000000
                                                         1.704998       0.000000
                                                         0.581447       0.000000
                                                         0.184258       0.172077
                          1       6    5py              13.162513       0.000000
                                                         4.797202       0.000000
                                                         1.704998       0.000000
                                                         0.581447       0.000000
                                                         0.184258       0.172077
                          1       6    5pz              13.162513       0.000000
                                                         4.797202       0.000000
                                                         1.704998       0.000000
                                                         0.581447       0.000000
                                                         0.184258       0.172077

                          2       1    3dx2              1.640000       3.911886
                          2       1    3dxy              1.640000       6.775585
                          2       1    3dxz              1.640000       6.775585
                          2       1    3dy2              1.640000       3.911886
                          2       1    3dyz              1.640000       6.775585
                          2       1    3dz2              1.640000       3.911886

       Atomic covalent radius [Angstrom]:                                  0.720

       Atomic van der Waals radius [Angstrom]:                             1.470

     GTH Potential information for                                       GTH-PBE

       Description:                       Goedecker-Teter-Hutter pseudopotential
                                           Goedecker et al., PRB 54, 1703 (1996)
                                          Hartwigsen et al., PRB 58, 3641 (1998)
                                                      Krack, TCA 114, 145 (2005)

       Gaussian exponent of the core charge distribution:              10.823746
       Electronic configuration (s p d ...):                               2   5

       Parameters of the local part of the GTH pseudopotential:

                          rloc        C1          C2          C3          C4
                        0.214930  -21.573028    3.199776

       Parameters of the non-local part of the GTH pseudopotential:

                   l      r(l)      h(i,j,l)

                   0    0.194684   23.743540
                   1    0.186156


 MOLECULE KIND INFORMATION


 All atoms are their own molecule, skipping detailed information


 TOTAL NUMBERS AND MAXIMUM NUMBERS

  Total number of            - Atomic kinds:                                   5
                             - Atoms:                                         49
                             - Shell sets:                                    98
                             - Shells:                                       298
                             - Primitive Cartesian functions:                294
                             - Cartesian basis functions:                    702
                             - Spherical basis functions:                    668

  Maximum angular momentum of- Orbital basis functions:                        2
                             - Local part of the GTH pseudopotential:          2
                             - Non-local part of the GTH pseudopotential:      0


 MODULE QUICKSTEP: ATOMIC COORDINATES IN ANGSTROM

   Atom Kind Element         X             Y             Z       Z(eff)     Mass
      1    1 O     8     13.201576     11.904600     12.741268   6.0000  15.9994
      2    1 O     8      7.439763     17.118152      9.617650   6.0000  15.9994
      3    1 O     8     22.385014     16.443635     20.279294   6.0000  15.9994
      4    2 N     7     17.630281     14.177014     16.670739   5.0000  14.0067
      5    3 C     6     10.232731     16.034806     11.723949   4.0000  12.0107
      6    4 H     1     10.956844     16.473408     12.397951   1.0000   1.0079
      7    3 C     6      9.281159     16.850088     11.142091   4.0000  12.0107
      8    4 H     1      9.248548     17.911652     11.345417   1.0000   1.0079
      9    3 C     6      8.357696     16.291797     10.273312   4.0000  12.0107
     10    3 C     6      8.364757     14.943114      9.979478   4.0000  12.0107
     11    4 H     1      7.632130     14.541759      9.292456   1.0000   1.0079
     12    3 C     6      9.325883     14.137713     10.567383   4.0000  12.0107
     13    4 H     1      9.348503     13.078954     10.339393   1.0000   1.0079
     14    3 C     6     10.275578     14.665513     11.443962   4.0000  12.0107
     15    3 C     6     11.287285     13.767637     12.000182   4.0000  12.0107
     16    4 H     1     11.223264     12.726418     11.696516   1.0000   1.0079
     17    3 C     6     12.297204     14.077493     12.814152   4.0000  12.0107
     18    4 H     1     12.460494     15.088938     13.160807   1.0000   1.0079
     19    3 C     6     13.272614     13.026728     13.201194   4.0000  12.0107
     20    3 C     6     14.380855     13.388072     14.133184   4.0000  12.0107
     21    3 C     6     15.507597     12.564443     14.155756   4.0000  12.0107
     22    4 H     1     15.524592     11.703984     13.499907   1.0000   1.0079
     23    3 C     6     16.563624     12.838961     14.997818   4.0000  12.0107
     24    4 H     1     17.442908     12.208321     15.020526   1.0000   1.0079
     25    3 C     6     16.522264     13.950814     15.841525   4.0000  12.0107
     26    3 C     6     15.379871     14.751416     15.856263   4.0000  12.0107
     27    4 H     1     15.306158     15.572519     16.558205   1.0000   1.0079
     28    3 C     6     14.326047     14.475948     15.000687   4.0000  12.0107
     29    4 H     1     13.443840     15.101767     15.041353   1.0000   1.0079
     30    3 C     6     18.024647     15.358662     16.901334   4.0000  12.0107
     31    4 H     1     17.545091     16.230645     16.439442   1.0000   1.0079
     32    3 C     6     19.164907     15.642735     17.780026   4.0000  12.0107
     33    3 C     6     19.925086     14.605681     18.322655   4.0000  12.0107
     34    4 H     1     19.653319     13.585859     18.085437   1.0000   1.0079
     35    3 C     6     21.006578     14.886973     19.132672   4.0000  12.0107
     36    4 H     1     21.618249     14.102624     19.557898   1.0000   1.0079
     37    3 C     6     21.317962     16.208428     19.409044   4.0000  12.0107
     38    3 C     6     20.571596     17.255572     18.901384   4.0000  12.0107
     39    4 H     1     20.829168     18.275657     19.147970   1.0000   1.0079
     40    3 C     6     19.498383     16.961485     18.074511   4.0000  12.0107
     41    4 H     1     18.908316     17.770386     17.659218   1.0000   1.0079
     42    3 C     6     23.495939     17.010932     19.775909   4.0000  12.0107
     43    5 F     9     23.307844     18.296016     19.432840   7.0000  18.9984
     44    5 F     9     24.434234     16.966373     20.707545   7.0000  18.9984
     45    5 F     9     23.938908     16.377805     18.685329   7.0000  18.9984
     46    3 C     6      6.309056     17.431839     10.275960   4.0000  12.0107
     47    5 F     9      5.603354     16.347638     10.620433   7.0000  18.9984
     48    5 F     9      5.565766     18.184701      9.480770   7.0000  18.9984
     49    5 F     9      6.549483     18.118024     11.402520   7.0000  18.9984



 SCF PARAMETERS         Density guess:                                    ATOMIC
                        --------------------------------------------------------
                        max_scf:                                             120
                        max_scf_history:                                       0
                        max_diis:                                              4
                        --------------------------------------------------------
                        eps_scf:                                        1.00E-05
                        eps_scf_history:                                0.00E+00
                        eps_diis:                                       1.00E-01
                        eps_eigval:                                     1.00E-05
                        --------------------------------------------------------
                        level_shift [a.u.]:                             0.000000
                        --------------------------------------------------------
                        Outer loop SCF in use 
                        No variables optimised in outer loop
                        eps_scf                                         1.00E-05
                        max_scf                                               20
                        No outer loop optimization
                        step_size                                       5.00E-01

 PW_GRID| Information for grid number                                          1
 PW_GRID| Grid distributed over                                    90 processors
 PW_GRID| Real space group dimensions                                    90    1
 PW_GRID| the grid is blocked:                                                NO
 PW_GRID| Cutoff [a.u.]                                                    250.0
 PW_GRID| spherical cutoff:                                                   NO
 PW_GRID|   Bounds   1           -202     202                Points:         405
 PW_GRID|   Bounds   2           -202     202                Points:         405
 PW_GRID|   Bounds   3           -202     202                Points:         405
 PW_GRID| Volume element (a.u.^3)  0.2743E-02     Volume (a.u.^3)    182205.0337
 PW_GRID| Grid span                                                    FULLSPACE
 PW_GRID|   Distribution                         Average         Max         Min
 PW_GRID|   G-Vectors                           738112.5      738315      737910
 PW_GRID|   G-Rays                                1822.5        1823        1822
 PW_GRID|   Real Space Points                   738112.5      820125      656100

 PW_GRID| Information for grid number                                          2
 PW_GRID| Number of the reference grid                                         1
 PW_GRID| Grid distributed over                                    90 processors
 PW_GRID| Real space group dimensions                                    90    1
 PW_GRID| the grid is blocked:                                                NO
 PW_GRID| Cutoff [a.u.]                                                     83.3
 PW_GRID| spherical cutoff:                                                   NO
 PW_GRID|   Bounds   1           -120     119                Points:         240
 PW_GRID|   Bounds   2           -120     119                Points:         240
 PW_GRID|   Bounds   3           -120     119                Points:         240
 PW_GRID| Volume element (a.u.^3)  0.1318E-01     Volume (a.u.^3)    182205.0337
 PW_GRID| Grid span                                                    FULLSPACE
 PW_GRID|   Distribution                         Average         Max         Min
 PW_GRID|   G-Vectors                           153600.0      153840      153360
 PW_GRID|   G-Rays                                 640.0         641         639
 PW_GRID|   Real Space Points                   153600.0      172800      115200

 PW_GRID| Information for grid number                                          3
 PW_GRID| Number of the reference grid                                         1
 PW_GRID| Grid distributed over                                    90 processors
 PW_GRID| Real space group dimensions                                    90    1
 PW_GRID| the grid is blocked:                                                NO
 PW_GRID| Cutoff [a.u.]                                                     27.8
 PW_GRID| spherical cutoff:                                                   NO
 PW_GRID|   Bounds   1            -67      67                Points:         135
 PW_GRID|   Bounds   2            -67      67                Points:         135
 PW_GRID|   Bounds   3            -67      67                Points:         135
 PW_GRID| Volume element (a.u.^3)  0.7406E-01     Volume (a.u.^3)    182205.0337
 PW_GRID| Grid span                                                    FULLSPACE
 PW_GRID|   Distribution                         Average         Max         Min
 PW_GRID|   G-Vectors                            27337.5       27675       27000
 PW_GRID|   G-Rays                                 202.5         205         200
 PW_GRID|   Real Space Points                    27337.5       36450       18225

 PW_GRID| Information for grid number                                          4
 PW_GRID| Number of the reference grid                                         1
 PW_GRID| Grid distributed over                                    90 processors
 PW_GRID| Real space group dimensions                                     9   10
 PW_GRID| the grid is blocked:                                                NO
 PW_GRID| Cutoff [a.u.]                                                      9.3
 PW_GRID| spherical cutoff:                                                   NO
 PW_GRID|   Bounds   1            -40      39                Points:          80
 PW_GRID|   Bounds   2            -40      39                Points:          80
 PW_GRID|   Bounds   3            -40      39                Points:          80
 PW_GRID| Volume element (a.u.^3)  0.3559         Volume (a.u.^3)    182205.0337
 PW_GRID| Grid span                                                    FULLSPACE
 PW_GRID|   Distribution                         Average         Max         Min
 PW_GRID|   G-Vectors                             5688.9        5840        5520
 PW_GRID|   G-Rays                                  71.1          73          69
 PW_GRID|   Real Space Points                     5688.9        5760        5120

 PW_GRID| Information for grid number                                          5
 PW_GRID| Number of the reference grid                                         1
 PW_GRID| Grid distributed over                                    90 processors
 PW_GRID| Real space group dimensions                                     9   10
 PW_GRID| the grid is blocked:                                                NO
 PW_GRID| Cutoff [a.u.]                                                      3.1
 PW_GRID| spherical cutoff:                                                   NO
 PW_GRID|   Bounds   1            -22      22                Points:          45
 PW_GRID|   Bounds   2            -22      22                Points:          45
 PW_GRID|   Bounds   3            -22      22                Points:          45
 PW_GRID| Volume element (a.u.^3)   2.000         Volume (a.u.^3)    182205.0337
 PW_GRID| Grid span                                                    FULLSPACE
 PW_GRID|   Distribution                         Average         Max         Min
 PW_GRID|   G-Vectors                             1012.5        1125         900
 PW_GRID|   G-Rays                                  22.5          25          20
 PW_GRID|   Real Space Points                     1012.5        1125         900

 PW_GRID| Information for grid number                                          6
 PW_GRID| Number of the reference grid                                         1
 PW_GRID| Grid distributed over                                    90 processors
 PW_GRID| Real space group dimensions                                     9   10
 PW_GRID| the grid is blocked:                                                NO
 PW_GRID| Cutoff [a.u.]                                                      1.0
 PW_GRID| spherical cutoff:                                                   NO
 PW_GRID|   Bounds   1            -12      12                Points:          25
 PW_GRID|   Bounds   2            -12      12                Points:          25
 PW_GRID|   Bounds   3            -12      12                Points:          25
 PW_GRID| Volume element (a.u.^3)   11.66         Volume (a.u.^3)    182205.0337
 PW_GRID| Grid span                                                    FULLSPACE
 PW_GRID|   Distribution                         Average         Max         Min
 PW_GRID|   G-Vectors                              173.6         200         150
 PW_GRID|   G-Rays                                   6.9           8           6
 PW_GRID|   Real Space Points                      173.6         225         100

 POISSON| Solver                                                         WAVELET
 POISSON| Wavelet| Scaling function                                           40
 POISSON| Periodicity                                                       NONE

 RS_GRID| Information for grid number                                          1
 RS_GRID|   Bounds   1           -202     202                Points:         405
 RS_GRID|   Bounds   2           -202     202                Points:         405
 RS_GRID|   Bounds   3           -202     202                Points:         405
 RS_GRID| Real space distribution over                                  3 groups
 RS_GRID| Real space distribution along direction                              1
 RS_GRID| Border size                                                         27
 RS_GRID| Real space distribution over                                  5 groups
 RS_GRID| Real space distribution along direction                              2
 RS_GRID| Border size                                                         27
 RS_GRID| Real space distribution over                                  6 groups
 RS_GRID| Real space distribution along direction                              3
 RS_GRID| Border size                                                         27
 RS_GRID|   Distribution                         Average         Max         Min
 RS_GRID|   Planes                                 189.0         189         189
 RS_GRID|   Distribution                         Average         Max         Min
 RS_GRID|   Planes                                 135.0         135         135
 RS_GRID|   Distribution                         Average         Max         Min
 RS_GRID|   Planes                                 121.5         122         121

 RS_GRID| Information for grid number                                          2
 RS_GRID|   Bounds   1           -120     119                Points:         240
 RS_GRID|   Bounds   2           -120     119                Points:         240
 RS_GRID|   Bounds   3           -120     119                Points:         240
 RS_GRID| Real space distribution over                                  3 groups
 RS_GRID| Real space distribution along direction                              1
 RS_GRID| Border size                                                         27
 RS_GRID| Real space distribution over                                  5 groups
 RS_GRID| Real space distribution along direction                              2
 RS_GRID| Border size                                                         27
 RS_GRID| Real space distribution over                                  6 groups
 RS_GRID| Real space distribution along direction                              3
 RS_GRID| Border size                                                         27
 RS_GRID|   Distribution                         Average         Max         Min
 RS_GRID|   Planes                                 134.0         134         134
 RS_GRID|   Distribution                         Average         Max         Min
 RS_GRID|   Planes                                 102.0         102         102
 RS_GRID|   Distribution                         Average         Max         Min
 RS_GRID|   Planes                                  94.0          94          94

 RS_GRID| Information for grid number                                          3
 RS_GRID|   Bounds   1            -67      67                Points:         135
 RS_GRID|   Bounds   2            -67      67                Points:         135
 RS_GRID|   Bounds   3            -67      67                Points:         135
 RS_GRID| Real space fully replicated
 RS_GRID| Group size                                                           1

 RS_GRID| Information for grid number                                          4
 RS_GRID|   Bounds   1            -40      39                Points:          80
 RS_GRID|   Bounds   2            -40      39                Points:          80
 RS_GRID|   Bounds   3            -40      39                Points:          80
 RS_GRID| Real space fully replicated
 RS_GRID| Group size                                                           1

 RS_GRID| Information for grid number                                          5
 RS_GRID|   Bounds   1            -22      22                Points:          45
 RS_GRID|   Bounds   2            -22      22                Points:          45
 RS_GRID|   Bounds   3            -22      22                Points:          45
 RS_GRID| Real space fully replicated
 RS_GRID| Group size                                                           1

 RS_GRID| Information for grid number                                          6
 RS_GRID|   Bounds   1            -12      12                Points:          25
 RS_GRID|   Bounds   2            -12      12                Points:          25
 RS_GRID|   Bounds   3            -12      12                Points:          25
 RS_GRID| Real space fully replicated
 RS_GRID| Group size                                                           1

 *******************************************************************************
 ***                     STARTING GEOMETRY OPTIMIZATION                      ***
 ***                                 L-BFGS                                  ***
 *******************************************************************************

 --------------------------
 OPTIMIZATION STEP:      1
 --------------------------

 Number of electrons:                                                        176
 Number of occupied orbitals:                                                 88
 Number of molecular orbitals:                                                88

 Number of orbital functions:                                                668
 Number of independent orbital functions:                                    668

 Extrapolation method: initial_guess

 Atomic guess: The first density matrix is obtained in terms of atomic orbitals
               and electronic configurations assigned to each atomic kind

 Guess for atomic kind: O

 Electronic structure
    Total number of core electrons                                          2.00
    Total number of valence electrons                                       6.00
    Total number of electrons                                               8.00
    Multiplicity                                                   not specified
    S   [  2.00] 2.00
    P      4.00


 *******************************************************************************
                  Iteration          Convergence                     Energy [au]
 *******************************************************************************
                          1        0.577491                     -15.568616633298
                          2        0.659429                     -15.574385699476
                          3        0.252248E-01                 -15.656217861375
                          4        0.156627E-02                 -15.656397101845
                          5        0.161710E-04                 -15.656397459300
                          6        0.346702E-06                 -15.656397459369

 Energy components [Hartree]           Total Energy ::          -15.656397459369
                                        Band Energy ::           -3.001886830830
                                     Kinetic Energy ::           11.780460877478
                                   Potential Energy ::          -27.436858336847
                                      Virial (-V/T) ::            2.329014002271
                                        Core Energy ::          -26.138300535672
                                          XC Energy ::           -3.153767183935
                                     Coulomb Energy ::           13.635670260237
                       Total Pseudopotential Energy ::          -37.953932103637
                       Local Pseudopotential Energy ::          -39.253303299158
                    Nonlocal Pseudopotential Energy ::            1.299371195522
                                        Confinement ::            0.351706904867

 Orbital energies  State     L     Occupation   Energy[a.u.]          Energy[eV]

                       1     0          2.000      -0.864888          -23.534800

                       1     1          4.000      -0.318028           -8.653974


 Total Electron Density at R=0:                                         0.000125

 Guess for atomic kind: N

 Electronic structure
    Total number of core electrons                                          2.00
    Total number of valence electrons                                       5.00
    Total number of electrons                                               7.00
    Multiplicity                                                   not specified
    S   [  2.00] 2.00
    P      3.00


 *******************************************************************************
                  Iteration          Convergence                     Energy [au]
 *******************************************************************************
                          1        0.271988                      -9.512616220151
                          2        0.247955                      -9.522554716740
                          3        0.504788E-02                  -9.546164505587
                          4        0.458466E-03                  -9.546178122964
                          5        0.244989E-05                  -9.546178176956
                          6        0.114677E-05                  -9.546178176959
                          7        0.269739E-08                  -9.546178176959

 Energy components [Hartree]           Total Energy ::           -9.546178176959
                                        Band Energy ::           -2.056052167563
                                     Kinetic Energy ::            6.750514589450
                                   Potential Energy ::          -16.296692766410
                                      Virial (-V/T) ::            2.414140811114
                                        Core Energy ::          -15.541752718363
                                          XC Energy ::           -2.162895801542
                                     Coulomb Energy ::            8.158470342945
                       Total Pseudopotential Energy ::          -22.329540620284
                       Local Pseudopotential Energy ::          -23.278432410601
                    Nonlocal Pseudopotential Energy ::            0.948891790316
                                        Confinement ::            0.372733124714

 Orbital energies  State     L     Occupation   Energy[a.u.]          Energy[eV]

                       1     0          2.000      -0.663798          -18.062862

                       1     1          3.000      -0.242819           -6.607433


 Total Electron Density at R=0:                                         0.000098

 Guess for atomic kind: C

 Electronic structure
    Total number of core electrons                                          2.00
    Total number of valence electrons                                       4.00
    Total number of electrons                                               6.00
    Multiplicity                                                   not specified
    S   [  2.00] 2.00
    P      2.00


 *******************************************************************************
                  Iteration          Convergence                     Energy [au]
 *******************************************************************************
                          1        0.989032E-01                  -5.274804028878
                          2        0.626412E-01                  -5.279859793703
                          3        0.811567E-03                  -5.283752722279
                          4        0.832201E-04                  -5.283753018164
                          5        0.104768E-06                  -5.283753025329

 Energy components [Hartree]           Total Energy ::           -5.283753025329
                                        Band Energy ::           -1.317239350806
                                     Kinetic Energy ::            3.389251109490
                                   Potential Energy ::           -8.673004134819
                                      Virial (-V/T) ::            2.558973606451
                                        Core Energy ::           -8.295157719552
                                          XC Energy ::           -1.377263451845
                                     Coulomb Energy ::            4.388668146068
                       Total Pseudopotential Energy ::          -11.718697935603
                       Local Pseudopotential Energy ::          -12.368442815308
                    Nonlocal Pseudopotential Energy ::            0.649744879704
                                        Confinement ::            0.342891065612

 Orbital energies  State     L     Occupation   Energy[a.u.]          Energy[eV]

                       1     0          2.000      -0.484434          -13.182123

                       1     1          2.000      -0.174186           -4.739829


 Total Electron Density at R=0:                                         0.000068

 Guess for atomic kind: H

 Electronic structure
    Total number of core electrons                                          0.00
    Total number of valence electrons                                       1.00
    Total number of electrons                                               1.00
    Multiplicity                                                   not specified
    S      1.00


 *******************************************************************************
                  Iteration          Convergence                     Energy [au]
 *******************************************************************************
                          1        0.440266E-02                  -0.423513531970
                          2        0.325828E-03                  -0.423525175186
                          3        0.252148E-04                  -0.423525335541
                          4        0.637775E-08                  -0.423525336420

 Energy components [Hartree]           Total Energy ::           -0.423525336420
                                        Band Energy ::           -0.195262559383
                                     Kinetic Energy ::            0.470173284674
                                   Potential Energy ::           -0.893698621094
                                      Virial (-V/T) ::            1.900785625696
                                        Core Energy ::           -0.479699819139
                                          XC Energy ::           -0.247097449670
                                     Coulomb Energy ::            0.303271932388
                       Total Pseudopotential Energy ::           -0.967738859557
                       Local Pseudopotential Energy ::           -0.967738859557
                    Nonlocal Pseudopotential Energy ::            0.000000000000
                                        Confinement ::            0.178657557441

 Orbital energies  State     L     Occupation   Energy[a.u.]          Energy[eV]

                       1     0          1.000      -0.195263           -5.313364


 Total Electron Density at R=0:                                         0.240075

 Guess for atomic kind: F

 Electronic structure
    Total number of core electrons                                          2.00
    Total number of valence electrons                                       7.00
    Total number of electrons                                               9.00
    Multiplicity                                                   not specified
    S   [  2.00] 2.00
    P      5.00


 *******************************************************************************
                  Iteration          Convergence                     Energy [au]
 *******************************************************************************
                          1         1.09128                     -23.755166850180
                          2         1.38433                     -23.734427909305
                          3        0.711476E-01                 -23.938311129009
                          4        0.418185E-02                 -23.939149765174
                          5        0.598928E-04                 -23.939151408555
                          6        0.262546E-05                 -23.939151409108
                          7        0.610895E-07                 -23.939151409109

 Energy components [Hartree]           Total Energy ::          -23.939151409109
                                        Band Energy ::           -4.155221101900
                                     Kinetic Energy ::           18.804077974298
                                   Potential Energy ::          -42.743229383407
                                      Virial (-V/T) ::            2.273082968590
                                        Core Energy ::          -40.725372091757
                                          XC Energy ::           -4.362691014750
                                     Coulomb Energy ::           21.148911697397
                       Total Pseudopotential Energy ::          -59.563738493204
[...]
 flops     6 x    24 x    17           1367095392       0.0%    100.0%      0.0%
 flops    97 x    32 x    23           1524933120       0.0%    100.0%      0.0%
 flops    80 x    32 x    32           1546649600       0.0%    100.0%      0.0%
 flops    97 x    32 x    34           1577974272       0.0%    100.0%      0.0%
 flops   102 x    32 x    23           1603537920       0.0%    100.0%      0.0%
 flops   102 x    32 x    34           1659313152       0.0%    100.0%      0.0%
 flops    17 x    17 x    24           1736275008       0.0%    100.0%      0.0%
 flops    32 x    32 x    23           1837056000       0.0%    100.0%      0.0%
 flops    80 x    32 x    17           1859174400       0.0%    100.0%      0.0%
 flops    32 x    32 x    34           1900953600       0.0%    100.0%      0.0%
 flops    80 x    32 x    23           2515353600       0.0%    100.0%      0.0%
 flops    80 x    32 x    34           2602844160       0.0%    100.0%      0.0%
 flops    17 x    32 x     6           3645587712       0.0%    100.0%      0.0%
 flops     6 x    32 x    17           3645587712       0.0%    100.0%      0.0%
 flops    17 x    17 x    32           4630066688       0.0%    100.0%      0.0%
 flops    17 x    24 x    17           8975322720       0.0%    100.0%      0.0%
 flops    17 x    32 x    17          23934193920       0.0%    100.0%      0.0%
 flops inhomo. stacks                 10072149120     100.0%      0.0%      0.0%
 flops total                       126.405286E+09       8.0%     92.0%      0.0%
 flops max/rank                      8.563755E+09       8.9%     91.1%      0.0%
 matmuls inhomo. stacks                     79191     100.0%      0.0%      0.0%
 matmuls total                            5691507       1.4%     98.6%      0.0%
 number of processed stacks               2881878       2.7%     97.3%      0.0%
 average stack size                                     1.0       2.0       0.0
 marketing flops                   153.279775E+09
 -------------------------------------------------------------------------------
 # multiplications                           5503
 max memory usage/rank               1.032659E+09
 # max total images/rank                        5
 # max 3D layers                                1
 # MPI messages exchanged                26249310
 MPI messages size (bytes):
  total size                        79.284863E+09
  min size                           0.000000E+00
  max size                          32.640000E+03
  average size                       3.020455E+03
 MPI breakdown and total messages size (bytes):
             size <=      128            19836669                        0
       128 < size <=     8192             2663166              13162005264
      8192 < size <=    32768             3749475              66120662928
     32768 < size <=   131072                   0                        0
    131072 < size <=  4194304                   0                        0
   4194304 < size <= 16777216                   0                        0
  16777216 < size                               0                        0
 -------------------------------------------------------------------------------

 *** WARNING in dbcsr_mm.F:291 :: Using a non-square number of MPI ranks ***
 *** might lead to poor performance. Used ranks: 90 Suggested: 81 169    ***

 -------------------------------------------------------------------------------
 -                                                                             -
 -                      DBCSR MESSAGE PASSING PERFORMANCE                      -
 -                                                                             -
 -------------------------------------------------------------------------------
 ROUTINE             CALLS      AVE VOLUME [Bytes]
 MP_Bcast              141                     12.
 MP_Allreduce        28728                      9.
 MP_Alltoall         25189                  17811.
 MP_ISend           615630                   2339.
 MP_IRecv           614254                   2148.
 -------------------------------------------------------------------------------

 -------------------------------------------------------------------------------
 -                                                                             -
 -                                DBM STATISTICS                               -
 -                                                                             -
 -------------------------------------------------------------------------------
    M  x    N  x    K                                          COUNT     PERCENT
 -------------------------------------------------------------------------------

 -------------------------------------------------------------------------------
 -                                                                             -
 -                                GRID STATISTICS                              -
 -                                                                             -
 -------------------------------------------------------------------------------
 LP    KERNEL             BACKEND                              COUNT     PERCENT
 2     collocate ortho    CPU                                1860305      22.23%
 2     integrate ortho    CPU                                1770426      21.16%
 1     collocate ortho    CPU                                1121803      13.41%
 1     integrate ortho    CPU                                1020817      12.20%
 3     integrate ortho    CPU                                 756672       9.04%
 3     collocate ortho    CPU                                 619705       7.41%
 0     collocate general  CPU                                 273420       3.27%
 0     collocate ortho    CPU                                 259661       3.10%
 0     integrate ortho    CPU                                 229504       2.74%
 0     integrate general  CPU                                 136710       1.63%
 1     integrate general  CPU                                 132300       1.58%
 4     integrate ortho    CPU                                 121589       1.45%
 4     collocate ortho    CPU                                  58798       0.70%
 5     integrate ortho    CPU                                   6602       0.08%
 -------------------------------------------------------------------------------

 MEMORY| Estimated peak process memory [MiB]                                 985

 -------------------------------------------------------------------------------
 ----                             MULTIGRID INFO                            ----
 -------------------------------------------------------------------------------
 count for grid        1:        6726147          cutoff [a.u.]          250.00
 count for grid        2:        2809845          cutoff [a.u.]           83.33
 count for grid        3:        1347193          cutoff [a.u.]           27.78
 count for grid        4:         228169          cutoff [a.u.]            9.26
 count for grid        5:           3240          cutoff [a.u.]            3.09
 count for grid        6:              0          cutoff [a.u.]            1.03
 total gridlevel count  :       11114594

 -------------------------------------------------------------------------------
 -                                                                             -
 -                         MESSAGE PASSING PERFORMANCE                         -
 -                                                                             -
 -------------------------------------------------------------------------------

 ROUTINE             CALLS      AVE VOLUME [Bytes]
 MP_Group                6
 MP_Bcast             6740                 130389.
 MP_Allreduce        22572                    286.
 MP_Sync               192
 MP_Alltoall          9944               20696873.
 MP_SendRecv        106088                  78083.
 MP_ISendRecv        94696                  87120.
 MP_Wait            142256
 MP_comm_split         186
 MP_ISend            42804                 515269.
 MP_IRecv            42804                 515301.
 -------------------------------------------------------------------------------


 -------------------------------------------------------------------------------
 -                                                                             -
 -                           R E F E R E N C E S                               -
 -                                                                             -
 -------------------------------------------------------------------------------
 
 CP2K version 2023.2, the CP2K developers group (2023).
 CP2K is freely available from https://www.cp2k.org/ .

 Kuehne,Thomas D.; Iannuzzi,Marcella; Del Ben,Mauro;
 Rybkin,Vladimir V.; Seewald,Patrick; Stein,Frederick; Laino,Teodoro;
 Khaliullin,Rustam Z.; Schuett,Ole; Schiffmann,Florian; Golze,Dorothea;
 Wilhelm,Jan; Chulkov,Sergey; Bani-Hashemian,Mohammad Hossein;
 Weber,Valery; Borstnik,Urban; Taillefumier,Mathieu;
 Jakobovits,Alice Shoshana; Lazzaro,Alfio; Pabst,Hans; Mueller,Tiziano;
 Schade,Robert; Guidon,Manuel; Andermatt,Samuel; Holmberg,Nico;
 Schenter,Gregory K.; Hehn,Anna; Bussy,Augustin; Belleflamme,Fabian;
 Tabacchi,Gloria; Gloess,Andreas; Lass,Michael; Bethune,Iain;
 Mundy,Christopher J.; Plessl,Christian; Watkins,Matt;
 VandeVondele,Joost; Krack,Matthias; Hutter,Juerg. 
 The Journal of Chemical Physics, 152 (19), (2020). 
 CP2K: An electronic structure and molecular dynamics software package -
 Quickstep: Efficient and accurate electronic structure calculations.
 https://doi.org/10.1063/5.0007045

 Goerigk, Lars; Hansen, Andreas; Bauer, Christoph; Ehrlich, Stephan;
 Najibi, Asim; Grimme, Stefan. , 19 (48), (2017). 
 A look at the density functional theory zoo with the advanced GMTKN55 database
 for general main group thermochemistry, kinetics and noncovalent interactions.
 https://doi.org/10.1039/C7CP04913G

 Schuett, Ole; Messmer, Peter; Hutter, Juerg; VandeVondele, Joost. 
 Electronic Structure Calculations on Graphics Processing Units, John
 Wiley & Sons, Ltd, 173-190 (2016). 
 GPU-Accelerated Sparse Matrix-Matrix Multiplication for
 Linear Scaling Density Functional Theory.
 https://doi.org/10.1002/9781118670712.ch8

 Heinecke, A; Henry, G; Hutchinson, M; Pabst, H. 
 Proceedings of Intl. Supercomputing Conference, 981-991 (2016). 
 LIBXSMM: Accelerating Small Matrix Multiplications
 by Runtime Code Generation.
 https://doi.org/10.1109/SC.2016.83

 Borstnik, U; VandeVondele, J; Weber, V; Hutter, J. 
 PARALLEL COMPUTING, 40 (5-6), 47-58 (2014). 
 Sparse matrix multiplication: The distributed block-compressed sparse
 row library.
 https://doi.org/10.1016/j.parco.2014.03.012

 Hutter, J; Iannuzzi, M; Schiffmann, F; VandeVondele, J. 
 WIREs Comput Mol Sci., 4 (1), 15-25 (2014). 
 CP2K: atomistic simulations of condensed matter systems.
 https://doi.org/10.1002/wcms.1159

 Grimme, S; Ehrlich, S; Goerigk, L. 
 JOURNAL OF COMPUTATIONAL CHEMISTRY, 32, 1456 (2011). 
 Effect of the damping function in dispersion corrected density functional theory.
 https://doi.org/10.1002/jcc.21759

 Grimme, S; Antony, J; Ehrlich, S; Krieg, H. 
 JOURNAL OF CHEMICAL PHYSICS, 132 (15), 154104 (2010). 
 A consistent and accurate ab initio parametrization of density
 functional dispersion correction (DFT-D) for the 94 elements H-Pu.
 https://doi.org/10.1063/1.3382344

 Genovese, L; Deutsch, T; Goedecker, S. 
 JOURNAL OF CHEMICAL PHYSICS, 127 (5), 054704 (2007). 
 Efficient and accurate three-dimensional Poisson solver for surface
 problems.
 https://doi.org/10.1063/1.2754685

 Kuhne, TD; Krack, M; Mohamed, FR; Parrinello, M. 
 PHYSICAL REVIEW LETTERS, 98 (6), 066401 (2007). 
 Efficient and accurate Car-Parrinello-like approach to
 Born-Oppenheimer molecular dynamics.
 https://doi.org/10.1103/PhysRevLett.98.066401

 Genovese, L; Deutsch, T; Neelov, A; Goedecker, S; Beylkin, G. 
 JOURNAL OF CHEMICAL PHYSICS, 125 (7), 074105 (2006). 
 Efficient solution of Poisson's equation with free boundary conditions.
 https://doi.org/10.1063/1.2335442

 Krack, M. 
 THEORETICAL CHEMISTRY ACCOUNTS, 114 (1-3), 145-152 (2005). 
 Pseudopotentials for H to Kr optimized for gradient-corrected
 exchange-correlation functionals.
 https://doi.org/10.1007/s00214-005-0655-y

 VandeVondele, J; Krack, M; Mohamed, F; Parrinello, M; Chassaing, T;
 Hutter, J. COMPUTER PHYSICS COMMUNICATIONS, 167 (2), 103-128 (2005). 
 QUICKSTEP: Fast and accurate density functional calculations using a
 mixed Gaussian and plane waves approach.
 https://doi.org/10.1016/j.cpc.2004.12.014

 Frigo, M; Johnson, SG. 
 PROCEEDINGS OF THE IEEE, 93 (2), 216-231 (2005). 
 The design and implementation of FFTW3.
 https://doi.org/10.1109/JPROC.2004.840301

 Kolafa, J. 
 JOURNAL OF COMPUTATIONAL CHEMISTRY, 25 (3), 335-342 (2004). 
 Time-reversible always stable predictor-corrector method for
 molecular dynamics of polarizable molecules.
 https://doi.org/10.1002/jcc.10385

 VandeVondele, J; Hutter, J. 
 JOURNAL OF CHEMICAL PHYSICS, 118 (10), 4365-4369 (2003). 
 An efficient orbital transformation method for electronic structure
 calculations.
 https://doi.org/10.1063/1.1543154

 Hartwigsen, C; Goedecker, S; Hutter, J. 
 PHYSICAL REVIEW B, 58 (7), 3641-3662 (1998). 
 Relativistic separable dual-space Gaussian pseudopotentials from H to Rn.
 https://doi.org/10.1103/PhysRevB.58.3641

 Lippert, G; Hutter, J; Parrinello, M. 
 MOLECULAR PHYSICS, 92 (3), 477-487 (1997). 
 A hybrid Gaussian and plane wave density functional scheme.
 https://doi.org/10.1080/002689797170220

 Perdew, JP; Burke, K; Ernzerhof, M. 
 PHYSICAL REVIEW LETTERS, 77 (18), 3865-3868 (1996). 
 Generalized gradient approximation made simple.
 https://doi.org/10.1103/PhysRevLett.77.3865

 Goedecker, S; Teter, M; Hutter, J. 
 PHYSICAL REVIEW B, 54 (3), 1703-1710 (1996). 
 Separable dual-space Gaussian pseudopotentials.
 https://doi.org/10.1103/PhysRevB.54.1703

 BYRD, RH; LU, PH; NOCEDAL, J; ZHU, CY. 
 SIAM JOURNAL ON SCIENTIFIC COMPUTING, 16 (5), 1190-1208 (1995). 
 A LIMITED MEMORY ALGORITHM FOR BOUND CONSTRAINED OPTIMIZATION.
 https://doi.org/10.1137/0916069


 -------------------------------------------------------------------------------
 -                                                                             -
 -                                T I M I N G                                  -
 -                                                                             -
 -------------------------------------------------------------------------------
 SUBROUTINE                       CALLS  ASD         SELF TIME        TOTAL TIME
                                MAXIMUM       AVERAGE  MAXIMUM  AVERAGE  MAXIMUM
 CP2K                                 1  1.0    0.197    0.281  947.691  947.693
 cp_geo_opt                           1  2.0    0.004    0.004  946.484  946.485
 geoopt_lbfgs                         1  3.0    0.000    0.002  946.480  946.481
 cp_eval_at                          31  5.0    0.006    0.011  946.414  946.419
 cp_opt_gopt_step                    24  4.0    0.004    0.026  928.203  928.204
 qs_forces                           30  6.0    0.003    0.004  928.131  928.131
 qs_energies                         31  6.9    0.005    0.005  862.466  862.484
 scf_env_do_scf                      31  7.9    0.002    0.027  824.657  824.666
 scf_env_do_scf_inner_loop          236  9.0    0.006    0.071  732.950  732.974
 rebuild_ks_matrix                  266 10.6    0.001    0.001  720.239  720.339
 qs_ks_build_kohn_sham_matrix       266 11.6    0.042    0.048  720.238  720.338
 qs_ks_update_qs_env                267 10.0    0.002    0.002  636.638  636.736
 pw_transfer                       6156 14.8    0.848    0.934  493.481  508.605
 fft_wrap_pw1pw2                   6156 15.8    0.113    0.124  492.633  507.772
 fft_wrap_pw1pw2_250               3491 17.1   94.872   99.919  467.248  481.677
 fft3d_ps                          6156 17.8  173.971  194.872  328.440  347.219
 qs_vxc_create                      266 12.6    0.010    0.012  312.695  316.983
 xc_vxc_pw_create                   266 13.6    1.762    2.574  312.685  316.975
 xc_pw_derive                      1596 15.6    0.033    0.038  247.898  261.688
 pw_poisson_solve                   266 12.6    9.035   18.841  243.835  243.836
 xc_pw_divergence                   266 14.6    0.016    0.018  163.828  175.676
 qs_rho_update_rho_low              267 10.1    0.002    0.002  169.712  169.716
 calculate_rho_elec                 267 11.1    0.758    0.820  169.710  169.714
 mp_alltoall_z22v                  6156 19.8  108.911  154.801  108.911  154.801
 xc_rho_set_and_dset_create         266 14.6    2.539    3.694  142.960  149.793
 ps_wavelet_solve                   266 13.6   86.068   98.427  137.900  142.471
 density_rs2pw                      267 12.1    0.024    0.027  127.068  130.632
 sum_up_and_integrate               266 12.6    3.046    3.687  113.507  113.776
 integrate_v_rspace                 266 13.6    0.011    0.013  110.461  111.107
 rs_pw_transfer                    3321 14.2    0.061    0.066   99.256  101.626
 yz_to_x                           2162 18.7   13.118   16.239   68.569  100.334
 potential_pw2rs                    266 14.6    0.126    0.149   97.987   98.560
 x_to_yz                           2395 19.1   26.562   29.119   79.214   92.120
 init_scf_loop                       31  8.9    0.001    0.001   91.514   91.522
 qs_ks_update_qs_env_forces          30  7.0    0.000    0.001   83.723   83.755
 mp_alltoall_d54                    266 14.6   34.476   82.253   34.476   82.253
 mp_alltoall_d11v                  7722 15.6   22.544   52.504   22.544   52.504
 grid_collocate_task_list           267 12.1   38.567   49.325   38.567   49.325
 mp_waitany                       42804 16.0   44.659   48.203   44.659   48.203
 dbcsr_multiply_generic            5503 14.9    0.164    0.185   38.217   39.093
 pw_gather_p                       2963 17.3   34.236   37.864   34.236   37.864
 pw_scatter_p                      3193 18.2   32.706   34.856   32.706   34.856
 qs_scf_new_mos                     236 10.0    0.001    0.001   30.678   30.751
 qs_scf_loop_do_ot                  236 11.0    0.001    0.001   30.678   30.750
 rs_pw_transfer_RS2PW_250           329 13.8    8.715   10.126   27.255   30.323
 ot_scf_mini                        236 12.0    0.003    0.003   30.164   30.235
 rs_pw_transfer_PW2RS_250           327 15.9    9.756   10.553   29.111   29.688
 mp_alltoall_d45                    267 14.6   16.130   29.345   16.130   29.345
 pw_derive                         1596 16.6   24.418   26.198   24.418   26.198
 ot_mini                            236 13.0    0.002    0.002   25.163   25.237
 qs_ot_get_derivative               236 14.0    0.002    0.002   23.102   23.179
 init_scf_run                        31  7.9    0.001    0.016   22.189   22.198
 scf_env_initial_rho_setup           31  8.9    0.001    0.010   22.188   22.198
 wfi_extrapolate                     31  9.9    0.001    0.029   21.008   21.008
 xc_functional_eval                 266 15.6    0.005    0.007   12.815   19.298
 pbe_lda_eval                       266 16.6   12.810   19.293   12.810   19.293
 -------------------------------------------------------------------------------

 The number of warnings for this run is : 1
 
 -------------------------------------------------------------------------------
  **** **** ******  **  PROGRAM ENDED AT                 2024-03-05 04:56:56.570
 ***** ** ***  *** **   PROGRAM RAN ON                              6607eaf65717
 **    ****   ******    PROGRAM RAN BY                                 <unknown>
 ***** **    ** ** **   PROGRAM PROCESS ID                                   538
  **** **  *******  **  PROGRAM STOPPED IN                                  /mnt
