 DBCSR| CPU Multiplication driver                                           XSMM (U)
 DBCSR| Multrec recursion limit                                              512 (U)
 DBCSR| Multiplication stack size                                           1000 (D)
 DBCSR| Maximum elements for images                                    UNLIMITED (U)
 DBCSR| Multiplicative factor virtual images                                   1 (U)
 DBCSR| Use multiplication densification                                       T (D)
 DBCSR| Multiplication size stacks                                             3 (U)
 DBCSR| Use memory pool for CPU allocation                                     F (U)
 DBCSR| Number of 3D layers                                               SINGLE (U)
 DBCSR| Use MPI memory allocation                                              F (U)
 DBCSR| Use RMA algorithm                                                      F (U)
 DBCSR| Use Communication thread                                               T (U)
 DBCSR| Communication thread load                                             83 (D)
 DBCSR| MPI: My process id                                                     0
 DBCSR| MPI: Number of processes                                              88
 DBCSR| OMP: Current number of threads                                         2
 DBCSR| OMP: Max number of threads                                             2
 DBCSR| Split modifier for TAS multiplication algorithm                  1.0E+00 (U)


  **** **** ******  **  PROGRAM STARTED AT               2024-01-19 18:04:58.030
 ***** ** ***  *** **   PROGRAM STARTED ON                          4517a862747c
 **    ****   ******    PROGRAM STARTED BY                             <unknown>
 ***** **    ** ** **   PROGRAM PROCESS ID                                   538
  **** **  *******  **  PROGRAM STARTED IN                                  /mnt

 CP2K| version string:                                       CP2K version 2023.2
 CP2K| source code revision number:                                  git:65cca6c
 CP2K| cp2kflags: omp libint fftw3 libxc pexsi elpa parallel scalapack cosma qui
 CP2K|            p xsmm plumed2 spglib sirius libvori libbqb libtorch libvdwxc
 CP2K| is freely available from                            https://www.cp2k.org/
 CP2K| Program compiled at                          Wed Oct 18 11:40:41 UTC 2023
 CP2K| Program compiled on                                          633bb7bf566f
 CP2K| Program compiled for                                                local
 CP2K| Data directory path                                        /opt/cp2k/data
 CP2K| Input file name                                          4amp15pbe_geo.in

 GLOBAL| Force Environment number                                              1
 GLOBAL| Basis set file name                                      GTH_BASIS_SETS
 GLOBAL| Potential file name                                           POTENTIAL
 GLOBAL| MM Potential file name                                     MM_POTENTIAL
 GLOBAL| Coordinate file name                                      __STD_INPUT__
 GLOBAL| Method name                                                        CP2K
 GLOBAL| Project name                                                  4amp15pbe
 GLOBAL| Run type                                                        GEO_OPT
 GLOBAL| FFT library                                                       FFTW3
 GLOBAL| Diagonalization library                                       ScaLAPACK
 GLOBAL| DGEMM library                                                      BLAS
 GLOBAL| Orthonormality check for eigenvectors                          DISABLED
 GLOBAL| Matrix multiplication library                                     COSMA
 GLOBAL| All-to-all communication in single precision                          F
 GLOBAL| FFTs using library dependent lengths                                  F
 GLOBAL| Grid backend                                                       AUTO
 GLOBAL| Global print level                                               MEDIUM
 GLOBAL| MPI I/O enabled                                                       T
 GLOBAL| Total number of message passing processes                            88
 GLOBAL| Number of threads for this process                                    2
 GLOBAL| This output is from process                                           0
 GLOBAL| Stack size for threads created by OpenMP (OMP_STACKSIZE)            16M
 GLOBAL| CPU model name                         AMD EPYC 9V33X 96-Core Processor
 GLOBAL| CPUID                                                              1003
 GLOBAL| Compiled for CPUID                                                    0

 *** HINT in environment.F:904 :: The compiler target flags (generic) used ***
 *** to build this binary cannot exploit all extensions of this CPU model  ***
 *** (x86_avx512). Consider compiler target flags as part of FCFLAGS and   ***
 *** CFLAGS (ARCH file).                                                   ***


 MEMORY| system memory details [Kb]
 MEMORY|                        rank 0           min           max       average
 MEMORY| MemTotal           1444892868    1444892868    1444892868    1444892868
 MEMORY| MemFree            1424810108    1424809856    1424810108    1424809913
 MEMORY| Buffers                 32960         32960         32960         32960
 MEMORY| Cached                 904148        904148        904148        904148
 MEMORY| Slab                  1038184       1038184       1038184       1038184
 MEMORY| SReclaimable           116692        116692        116692        116692
 MEMORY| MemLikelyFree      1425863908    1425863656    1425863908    1425863713


 *** Fundamental physical constants (SI units) ***

 *** Literature: B. J. Mohr and B. N. Taylor,
 ***             CODATA recommended values of the fundamental physical
 ***             constants: 2006, Web Version 5.1
 ***             http://physics.nist.gov/constants

 Speed of light in vacuum [m/s]                             2.99792458000000E+08
 Magnetic constant or permeability of vacuum [N/A**2]       1.25663706143592E-06
 Electric constant or permittivity of vacuum [F/m]          8.85418781762039E-12
 Planck constant (h) [J*s]                                  6.62606896000000E-34
 Planck constant (h-bar) [J*s]                              1.05457162825177E-34
 Elementary charge [C]                                      1.60217648700000E-19
 Electron mass [kg]                                         9.10938215000000E-31
 Electron g factor [ ]                                     -2.00231930436220E+00
 Proton mass [kg]                                           1.67262163700000E-27
 Fine-structure constant                                    7.29735253760000E-03
 Rydberg constant [1/m]                                     1.09737315685270E+07
 Avogadro constant [1/mol]                                  6.02214179000000E+23
 Boltzmann constant [J/K]                                   1.38065040000000E-23
 Atomic mass unit [kg]                                      1.66053878200000E-27
 Bohr radius [m]                                            5.29177208590000E-11

 *** Conversion factors ***

 [u] -> [a.u.]                                              1.82288848426455E+03
 [Angstrom] -> [Bohr] = [a.u.]                              1.88972613288564E+00
 [a.u.] = [Bohr] -> [Angstrom]                              5.29177208590000E-01
 [a.u.] -> [s]                                              2.41888432650478E-17
 [a.u.] -> [fs]                                             2.41888432650478E-02
 [a.u.] -> [J]                                              4.35974393937059E-18
 [a.u.] -> [N]                                              8.23872205491840E-08
 [a.u.] -> [K]                                              3.15774647902944E+05
 [a.u.] -> [kJ/mol]                                         2.62549961709828E+03
 [a.u.] -> [kcal/mol]                                       6.27509468713739E+02
 [a.u.] -> [Pa]                                             2.94210107994716E+13
 [a.u.] -> [bar]                                            2.94210107994716E+08
 [a.u.] -> [atm]                                            2.90362800883016E+08
 [a.u.] -> [eV]                                             2.72113838565563E+01
 [a.u.] -> [Hz]                                             6.57968392072181E+15
 [a.u.] -> [1/cm] (wave numbers)                            2.19474631370540E+05
 [a.u./Bohr**2] -> [1/cm]                                   5.14048714338585E+03


 CELL_TOP| Volume [angstrom^3]:                                      1794.873569
 CELL_TOP| Vector a [angstrom    16.297     0.000     0.000   |a| =    16.297000
 CELL_TOP| Vector b [angstrom     0.000     5.630     0.000   |b| =     5.630400
 CELL_TOP| Vector c [angstrom   -15.279     0.000    19.561   |c| =    24.821000
 CELL_TOP| Angle (b,c), alpha [degree]:                                90.000000
 CELL_TOP| Angle (a,c), beta  [degree]:                               127.994000
 CELL_TOP| Angle (a,b), gamma [degree]:                                90.000000
 CELL_TOP| Numerically orthorhombic:                                          NO
 CELL_TOP| Periodicity                                                       XYZ

 GENERATE|  Preliminary Number of Bonds generated:                             0
 GENERATE|  Achieved consistency in connectivity generation.

 CELL| Volume [angstrom^3]:                                          1794.873569
 CELL| Vector a [angstrom]:      16.297     0.000     0.000   |a| =    16.297000
 CELL| Vector b [angstrom]:       0.000     5.630     0.000   |b| =     5.630400
 CELL| Vector c [angstrom]:     -15.279     0.000    19.561   |c| =    24.821000
 CELL| Angle (b,c), alpha [degree]:                                    90.000000
 CELL| Angle (a,c), beta  [degree]:                                   127.994000
 CELL| Angle (a,b), gamma [degree]:                                    90.000000
 CELL| Numerically orthorhombic:                                              NO
 CELL| Periodicity                                                           XYZ

 CELL_REF| Volume [angstrom^3]:                                      1794.873569
 CELL_REF| Vector a [angstrom    16.297     0.000     0.000   |a| =    16.297000
 CELL_REF| Vector b [angstrom     0.000     5.630     0.000   |b| =     5.630400
 CELL_REF| Vector c [angstrom   -15.279     0.000    19.561   |c| =    24.821000
 CELL_REF| Angle (b,c), alpha [degree]:                                90.000000
 CELL_REF| Angle (a,c), beta  [degree]:                               127.994000
 CELL_REF| Angle (a,b), gamma [degree]:                                90.000000
 CELL_REF| Numerically orthorhombic:                                          NO
 CELL_REF| Periodicity                                                       XYZ

 *******************************************************************************
 *******************************************************************************
 **                                                                           **
 **     #####                         ##              ##                      **
 **    ##   ##            ##          ##              ##                      **
 **   ##     ##                       ##            ######                    **
 **   ##     ##  ##   ##  ##   #####  ##  ##   ####   ##    #####    #####    **
 **   ##     ##  ##   ##  ##  ##      ## ##   ##      ##   ##   ##  ##   ##   **
 **   ##  ## ##  ##   ##  ##  ##      ####     ###    ##   ######   ######    **
 **    ##  ###   ##   ##  ##  ##      ## ##      ##   ##   ##       ##        **
 **     #######   #####   ##   #####  ##  ##  ####    ##    #####   ##        **
 **           ##                                                    ##        **
 **                                                                           **
 **                                                ... make the atoms dance   **
 **                                                                           **
 **            Copyright (C) by CP2K developers group (2000-2023)             **
 **                      J. Chem. Phys. 152, 194103 (2020)                    **
 **                                                                           **
 *******************************************************************************

 DFT| Spin restricted Kohn-Sham (RKS) calculation                            RKS
 DFT| Multiplicity                                                             1
 DFT| Number of spin states                                                    1
 DFT| Charge                                                                   0
 DFT| Self-interaction correction (SIC)                                       NO
 DFT| Cutoffs: density                                              1.000000E-10
 DFT|          gradient                                             1.000000E-10
 DFT|          tau                                                  1.000000E-10
 DFT|          cutoff_smoothing_range                               0.000000E+00
 DFT| XC density smoothing                                                  NONE
 DFT| XC derivatives                                                          PW

 FUNCTIONAL| PBE:
 FUNCTIONAL| J.P.Perdew, K.Burke, M.Ernzerhof, Phys. Rev. Letter, vol. 77, n 18,
 FUNCTIONAL|  pp. 3865-3868, (1996){spin unpolarized}


 QS| Method:                                                                 GPW
 QS| Density plane wave grid type                        NON-SPHERICAL FULLSPACE
 QS| Number of grid levels:                                                    4
 QS| Density cutoff [a.u.]:                                                175.0
 QS| Multi grid cutoff [a.u.]: 1) grid level                               175.0
 QS|                           2) grid level                                58.3
 QS|                           3) grid level                                19.4
 QS|                           4) grid level                                 6.5
 QS| Grid level progression factor:                                          3.0
 QS| Relative density cutoff [a.u.]:                                        25.0
 QS| Interaction thresholds: eps_pgf_orb:                                1.0E-05
 QS|                         eps_filter_matrix:                          0.0E+00
 QS|                         eps_core_charge:                            1.0E-12
 QS|                         eps_rho_gspace:                             1.0E-10
 QS|                         eps_rho_rspace:                             1.0E-10
 QS|                         eps_gvg_rspace:                             1.0E-05
 QS|                         eps_ppl:                                    1.0E-02
 QS|                         eps_ppnl:                                   1.0E-07


 ATOMIC KIND INFORMATION

  1. Atomic kind: O                                     Number of atoms:      12

     Orbital Basis Set                                               TZVP-GTH-q6

       Number of orbital shell sets:                                           2
       Number of orbital shells:                                               7
       Number of primitive Cartesian functions:                                6
       Number of Cartesian basis functions:                                   18
       Number of spherical basis functions:                                   17
       Norm type:                                                              2

       Normalised Cartesian orbitals:

                        Set   Shell   Orbital            Exponent    Coefficient

                          1       1    2s               10.267442       0.404544
                                                         3.748050       0.199889
                                                         1.330834      -0.336302
                                                         0.455680      -0.246356
                                                         0.146292      -0.028287

                          1       2    3s               10.267442       0.000000
                                                         3.748050       0.000000
                                                         1.330834       0.000000
                                                         0.455680       0.395280
                                                         0.146292       0.000000

                          1       3    4s               10.267442       0.000000
                                                         3.748050       0.000000
                                                         1.330834       0.000000
                                                         0.455680       0.000000
                                                         0.146292       0.168588

                          1       4    3px              10.267442      -1.561025
                                                         3.748050      -1.394275
                                                         1.330834      -0.754014
                                                         0.455680      -0.224400
                                                         0.146292      -0.029841
                          1       4    3py              10.267442      -1.561025
                                                         3.748050      -1.394275
                                                         1.330834      -0.754014
                                                         0.455680      -0.224400
                                                         0.146292      -0.029841
                          1       4    3pz              10.267442      -1.561025
                                                         3.748050      -1.394275
                                                         1.330834      -0.754014
                                                         0.455680      -0.224400
                                                         0.146292      -0.029841

                          1       5    4px              10.267442       0.000000
                                                         3.748050       0.000000
                                                         1.330834       0.000000
                                                         0.455680       0.533661
                                                         0.146292       0.000000
                          1       5    4py              10.267442       0.000000
                                                         3.748050       0.000000
                                                         1.330834       0.000000
                                                         0.455680       0.533661
                                                         0.146292       0.000000
                          1       5    4pz              10.267442       0.000000
                                                         3.748050       0.000000
                                                         1.330834       0.000000
                                                         0.455680       0.533661
                                                         0.146292       0.000000

                          1       6    5px              10.267442       0.000000
                                                         3.748050       0.000000
                                                         1.330834       0.000000
                                                         0.455680       0.000000
                                                         0.146292       0.128963
                          1       6    5py              10.267442       0.000000
                                                         3.748050       0.000000
                                                         1.330834       0.000000
                                                         0.455680       0.000000
                                                         0.146292       0.128963
                          1       6    5pz              10.267442       0.000000
                                                         3.748050       0.000000
                                                         1.330834       0.000000
                                                         0.455680       0.000000
                                                         0.146292       0.128963

                          2       1    3dx2              1.185000       2.215218
                          2       1    3dxy              1.185000       3.836871
                          2       1    3dxz              1.185000       3.836871
                          2       1    3dy2              1.185000       2.215218
                          2       1    3dyz              1.185000       3.836871
                          2       1    3dz2              1.185000       2.215218

       Atomic covalent radius [Angstrom]:                                  0.730

       Atomic van der Waals radius [Angstrom]:                             1.520

     GTH Potential information for                                       GTH-PBE

       Description:                       Goedecker-Teter-Hutter pseudopotential
                                           Goedecker et al., PRB 54, 1703 (1996)
                                          Hartwigsen et al., PRB 58, 3641 (1998)
                                                      Krack, TCA 114, 145 (2005)

       Gaussian exponent of the core charge distribution:               8.360253
       Electronic configuration (s p d ...):                               2   4

       Parameters of the local part of the GTH pseudopotential:

                          rloc        C1          C2          C3          C4
                        0.244554  -16.667215    2.487311

       Parameters of the non-local part of the GTH pseudopotential:

                   l      r(l)      h(i,j,l)

                   0    0.220956   18.337458
                   1    0.211332

  2. Atomic kind: N                                     Number of atoms:       4

     Orbital Basis Set                                               TZVP-GTH-q5

       Number of orbital shell sets:                                           2
       Number of orbital shells:                                               7
       Number of primitive Cartesian functions:                                6
       Number of Cartesian basis functions:                                   18
       Number of spherical basis functions:                                   17
       Norm type:                                                              2

       Normalised Cartesian orbitals:

                        Set   Shell   Orbital            Exponent    Coefficient

                          1       1    2s                7.622745       0.321703
                                                         2.797061       0.161118
                                                         0.990977      -0.264934
                                                         0.341731      -0.199987
                                                         0.111682      -0.023066

                          1       2    3s                7.622745       0.000000
                                                         2.797061       0.000000
                                                         0.990977       0.000000
                                                         0.341731       0.318547
                                                         0.111682       0.000000

                          1       3    4s                7.622745       0.000000
                                                         2.797061       0.000000
                                                         0.990977       0.000000
                                                         0.341731       0.000000
                                                         0.111682       0.137689

                          1       4    3px               7.622745      -1.014025
                                                         2.797061      -0.927144
                                                         0.990977      -0.514975
                                                         0.341731      -0.158623
                                                         0.111682      -0.021774
                          1       4    3py               7.622745      -1.014025
                                                         2.797061      -0.927144
                                                         0.990977      -0.514975
                                                         0.341731      -0.158623
                                                         0.111682      -0.021774
                          1       4    3pz               7.622745      -1.014025
                                                         2.797061      -0.927144
                                                         0.990977      -0.514975
                                                         0.341731      -0.158623
                                                         0.111682      -0.021774

                          1       5    4px               7.622745       0.000000
                                                         2.797061       0.000000
                                                         0.990977       0.000000
                                                         0.341731       0.372431
                                                         0.111682       0.000000
                          1       5    4py               7.622745       0.000000
                                                         2.797061       0.000000
                                                         0.990977       0.000000
                                                         0.341731       0.372431
                                                         0.111682       0.000000
                          1       5    4pz               7.622745       0.000000
                                                         2.797061       0.000000
                                                         0.990977       0.000000
                                                         0.341731       0.372431
                                                         0.111682       0.000000

                          1       6    5px               7.622745       0.000000
                                                         2.797061       0.000000
                                                         0.990977       0.000000
                                                         0.341731       0.000000
                                                         0.111682       0.092028
                          1       6    5py               7.622745       0.000000
                                                         2.797061       0.000000
                                                         0.990977       0.000000
                                                         0.341731       0.000000
                                                         0.111682       0.092028
                          1       6    5pz               7.622745       0.000000
                                                         2.797061       0.000000
                                                         0.990977       0.000000
                                                         0.341731       0.000000
                                                         0.111682       0.092028

                          2       1    3dx2              0.817000       1.155575
                          2       1    3dxy              0.817000       2.001514
                          2       1    3dxz              0.817000       2.001514
                          2       1    3dy2              0.817000       1.155575
                          2       1    3dyz              0.817000       2.001514
                          2       1    3dz2              0.817000       1.155575

       Atomic covalent radius [Angstrom]:                                  0.750

       Atomic van der Waals radius [Angstrom]:                             1.550

     GTH Potential information for                                       GTH-PBE

       Description:                       Goedecker-Teter-Hutter pseudopotential
                                           Goedecker et al., PRB 54, 1703 (1996)
                                          Hartwigsen et al., PRB 58, 3641 (1998)
                                                      Krack, TCA 114, 145 (2005)

       Gaussian exponent of the core charge distribution:               6.208322
       Electronic configuration (s p d ...):                               2   3

       Parameters of the local part of the GTH pseudopotential:

                          rloc        C1          C2          C3          C4
                        0.283791  -12.415226    1.868096

       Parameters of the non-local part of the GTH pseudopotential:

                   l      r(l)      h(i,j,l)

                   0    0.255405   13.630263
                   1    0.245495

  3. Atomic kind: C                                     Number of atoms:      96

     Orbital Basis Set                                               TZVP-GTH-q4

       Number of orbital shell sets:                                           2
       Number of orbital shells:                                               7
       Number of primitive Cartesian functions:                                6
       Number of Cartesian basis functions:                                   18
       Number of spherical basis functions:                                   17
       Norm type:                                                              2

       Normalised Cartesian orbitals:

                        Set   Shell   Orbital            Exponent    Coefficient

                          1       1    2s                5.368566       0.245056
                                                         1.983069       0.124102
                                                         0.697835      -0.198350
                                                         0.243097      -0.156359
                                                         0.081287      -0.018192

                          1       2    3s                5.368566       0.000000
                                                         1.983069       0.000000
                                                         0.697835       0.000000
                                                         0.243097       0.246743
                                                         0.081287       0.000000

                          1       3    4s                5.368566       0.000000
                                                         1.983069       0.000000
                                                         0.697835       0.000000
                                                         0.243097       0.000000
                                                         0.081287       0.108499

                          1       4    3px               5.368566      -0.595193
                                                         1.983069      -0.567909
                                                         0.697835      -0.325466
                                                         0.243097      -0.105296
                                                         0.081287      -0.015205
                          1       4    3py               5.368566      -0.595193
                                                         1.983069      -0.567909
                                                         0.697835      -0.325466
                                                         0.243097      -0.105296
                                                         0.081287      -0.015205
                          1       4    3pz               5.368566      -0.595193
                                                         1.983069      -0.567909
                                                         0.697835      -0.325466
                                                         0.243097      -0.105296
                                                         0.081287      -0.015205

                          1       5    4px               5.368566       0.000000
                                                         1.983069       0.000000
                                                         0.697835       0.000000
                                                         0.243097       0.243312
                                                         0.081287       0.000000
                          1       5    4py               5.368566       0.000000
                                                         1.983069       0.000000
                                                         0.697835       0.000000
                                                         0.243097       0.243312
                                                         0.081287       0.000000
                          1       5    4pz               5.368566       0.000000
                                                         1.983069       0.000000
                                                         0.697835       0.000000
                                                         0.243097       0.243312
                                                         0.081287       0.000000

                          1       6    5px               5.368566       0.000000
                                                         1.983069       0.000000
                                                         0.697835       0.000000
                                                         0.243097       0.000000
                                                         0.081287       0.061868
                          1       6    5py               5.368566       0.000000
                                                         1.983069       0.000000
                                                         0.697835       0.000000
                                                         0.243097       0.000000
                                                         0.081287       0.061868
                          1       6    5pz               5.368566       0.000000
                                                         1.983069       0.000000
                                                         0.697835       0.000000
                                                         0.243097       0.000000
                                                         0.081287       0.061868

                          2       1    3dx2              0.550000       0.578155
                          2       1    3dxy              0.550000       1.001394
                          2       1    3dxz              0.550000       1.001394
                          2       1    3dy2              0.550000       0.578155
                          2       1    3dyz              0.550000       1.001394
                          2       1    3dz2              0.550000       0.578155

       Atomic covalent radius [Angstrom]:                                  0.770

       Atomic van der Waals radius [Angstrom]:                             1.700

     GTH Potential information for                                       GTH-PBE

       Description:                       Goedecker-Teter-Hutter pseudopotential
                                           Goedecker et al., PRB 54, 1703 (1996)
                                          Hartwigsen et al., PRB 58, 3641 (1998)
                                                      Krack, TCA 114, 145 (2005)

       Gaussian exponent of the core charge distribution:               4.364419
       Electronic configuration (s p d ...):                               2   2

       Parameters of the local part of the GTH pseudopotential:

                          rloc        C1          C2          C3          C4
                        0.338471   -8.803674    1.339211

       Parameters of the non-local part of the GTH pseudopotential:

                   l      r(l)      h(i,j,l)

                   0    0.302576    9.622487
                   1    0.291507

  4. Atomic kind: H                                     Number of atoms:      84

     Orbital Basis Set                                               TZVP-GTH-q1

       Number of orbital shell sets:                                           2
       Number of orbital shells:                                               4
       Number of primitive Cartesian functions:                                6
       Number of Cartesian basis functions:                                    6
       Number of spherical basis functions:                                    6
       Norm type:                                                              2

       Normalised Cartesian orbitals:

                        Set   Shell   Orbital            Exponent    Coefficient

                          1       1    1s               10.882724      -0.071340
                                                         3.096875      -0.104410
                                                         0.987452      -0.135375
                                                         0.345069      -0.133923
                                                         0.149269      -0.073092

                          1       2    2s               10.882724       0.000000
                                                         3.096875       0.000000
                                                         0.987452       0.000000
                                                         0.345069       0.320878
                                                         0.149269       0.000000

                          1       3    3s               10.882724       0.000000
                                                         3.096875       0.000000
                                                         0.987452       0.000000
                                                         0.345069       0.000000
                                                         0.149269       0.171154

                          2       1    2px               0.727000       0.956881
                          2       1    2py               0.727000       0.956881
                          2       1    2pz               0.727000       0.956881

       Atomic covalent radius [Angstrom]:                                  0.320

       Atomic van der Waals radius [Angstrom]:                             1.090

     GTH Potential information for                                       GTH-PBE

       Description:                       Goedecker-Teter-Hutter pseudopotential
                                           Goedecker et al., PRB 54, 1703 (1996)
                                          Hartwigsen et al., PRB 58, 3641 (1998)
                                                      Krack, TCA 114, 145 (2005)

       Gaussian exponent of the core charge distribution:              12.500000
       Electronic configuration (s p d ...):                                   1

       Parameters of the local part of the GTH pseudopotential:

                          rloc        C1          C2          C3          C4
                        0.200000   -4.178900    0.724463


 MOLECULE KIND INFORMATION


 All atoms are their own molecule, skipping detailed information


 TOTAL NUMBERS AND MAXIMUM NUMBERS

  Total number of            - Atomic kinds:                                   4
                             - Atoms:                                        196
                             - Shell sets:                                   392
                             - Shells:                                      1120
                             - Primitive Cartesian functions:               1176
                             - Cartesian basis functions:                   2520
                             - Spherical basis functions:                   2408

  Maximum angular momentum of- Orbital basis functions:                        2
                             - Local part of the GTH pseudopotential:          2
                             - Non-local part of the GTH pseudopotential:      0


 MODULE QUICKSTEP: ATOMIC COORDINATES IN ANGSTROM

   Atom Kind Element         X             Y             Z       Z(eff)     Mass
      1    1 O     8     -4.564548      3.854572      9.461175   6.0000  15.9994
      2    1 O     8      0.051220      4.314012     10.885789   6.0000  15.9994
      3    1 O     8      3.815808      5.340434     12.025598   6.0000  15.9994
      4    2 N     7     -7.332931      2.729618     12.781232   5.0000  14.0067
      5    3 C     6     -1.810500      1.540477     13.048042   4.0000  12.0107
      6    4 H     1     -2.252118      2.198057     13.535712   1.0000   1.0079
      7    3 C     6     -0.954680      0.715624     13.663229   4.0000  12.0107
      8    4 H     1     -0.804888      0.813441     14.575800   1.0000   1.0079
      9    3 C     6     -0.301191      5.368023     12.983100   4.0000  12.0107
     10    4 H     1      0.292266      4.801504     13.421986   1.0000   1.0079
     11    3 C     6     -0.525371      5.234583     11.665679   4.0000  12.0107
     12    3 C     6     -1.393261      0.437482     11.034647   4.0000  12.0107
     13    4 H     1     -1.547482      0.331450     10.123700   1.0000   1.0079
     14    3 C     6     -2.038885      1.419424     11.709300   4.0000  12.0107
     15    3 C     6     -2.923496      2.283127     10.988679   4.0000  12.0107
     16    4 H     1     -3.064870      2.074814     10.093498   1.0000   1.0079
     17    3 C     6     -3.545195      3.318558     11.440338   4.0000  12.0107
     18    4 H     1     -3.420727      3.563362     12.328830   1.0000   1.0079
     19    3 C     6     -4.425656      4.109066     10.620936   4.0000  12.0107
     20    3 C     6     -5.157274      5.214876     11.212064   4.0000  12.0107
     21    3 C     6     -5.984608      0.320370     10.417699   4.0000  12.0107
     22    4 H     1     -6.055281      0.107473      9.515104   1.0000   1.0079
     23    3 C     6     -6.705160      1.350733     10.908284   4.0000  12.0107
     24    4 H     1     -7.252616      1.844333     10.341822   1.0000   1.0079
     25    3 C     6     -6.632288      1.668851     12.224336   4.0000  12.0107
     26    3 C     6     -5.788342      0.965614     13.012245   4.0000  12.0107
     27    4 H     1     -5.695656      1.199410     13.907563   1.0000   1.0079
     28    3 C     6     -5.077109      5.562272     12.521073   4.0000  12.0107
     29    4 H     1     -4.522523      5.078542     13.089256   1.0000   1.0079
     30    3 C     6     -8.500543      2.944136     12.390994   4.0000  12.0107
     31    4 H     1     -8.873971      2.359019     11.772383   1.0000   1.0079
     32    3 C     6     -9.291477      4.049384     12.850673   4.0000  12.0107
     33    3 C     6      5.782152      4.214354     12.297102   4.0000  12.0107
     34    4 H     1      5.471808      3.599819     11.671567   1.0000   1.0079
     35    3 C     6      5.004617      5.268928     12.647827   4.0000  12.0107
     36    3 C     6      5.437924      0.515745     13.574423   4.0000  12.0107
     37    4 H     1      4.904206      1.234341     13.827990   1.0000   1.0079
     38    3 C     6     -9.636112      0.337261     14.132689   4.0000  12.0107
     39    4 H     1     -9.336557      0.937980     14.776377   1.0000   1.0079
     40    3 C     6     -8.846965      4.937861     13.773357   4.0000  12.0107
     41    4 H     1     -8.003888      4.836773     14.154264   1.0000   1.0079
     42    3 C     6      0.950535      3.415401     11.466159   4.0000  12.0107
     43    4 H     1      1.292751      2.823837     10.791369   1.0000   1.0079
     44    4 H     1      0.501265      2.903304     12.142219   1.0000   1.0079
     45    4 H     1      1.677700      3.901147     11.863204   1.0000   1.0079
     46    3 C     6      3.092694      0.893544     12.166240   4.0000  12.0107
     47    4 H     1      2.314974      0.862127     11.604082   1.0000   1.0079
     48    4 H     1      3.642895      1.637157     11.909974   1.0000   1.0079
     49    4 H     1      2.821725      0.996237     13.081530   1.0000   1.0079
     50    1 O     8     13.221905      1.039372      0.319232   6.0000  15.9994
     51    1 O     8     -6.673148      1.498812     18.455433   6.0000  15.9994
     52    1 O     8    -10.437736      2.525234     17.315625   6.0000  15.9994
     53    2 N     7      0.711003      5.544818     16.559990   5.0000  14.0067
     54    3 C     6     -4.811428      4.355677     16.293181   4.0000  12.0107
     55    4 H     1     -4.369810      5.013257     15.805510   1.0000   1.0079
     56    3 C     6     -5.667248      3.530824     15.677993   4.0000  12.0107
     57    4 H     1     -5.817040      3.628641     14.765423   1.0000   1.0079
     58    3 C     6     -6.320736      2.552823     16.358123   4.0000  12.0107
     59    4 H     1     -6.914194      1.986304     15.919237   1.0000   1.0079
     60    3 C     6     -6.096557      2.419383     17.675544   4.0000  12.0107
     61    3 C     6     -5.228667      3.252682     18.306576   4.0000  12.0107
     62    4 H     1     -5.074445      3.146650     19.217523   1.0000   1.0079
     63    3 C     6     -4.583042      4.234624     17.631923   4.0000  12.0107
     64    3 C     6     -3.698432      5.098327     18.352544   4.0000  12.0107
     65    4 H     1     -3.557057      4.890014     19.247725   1.0000   1.0079
     66    3 C     6     -3.076733      0.503358     17.900884   4.0000  12.0107
     67    4 H     1     -3.201201      0.748162     17.012393   1.0000   1.0079
     68    3 C     6     -2.196272      1.293866     18.720287   4.0000  12.0107
     69    3 C     6     -1.464653      2.399676     18.129159   4.0000  12.0107
     70    3 C     6     -0.637320      3.135570     18.923524   4.0000  12.0107
     71    4 H     1     14.712638      2.922673      0.265303   1.0000   1.0079
     72    3 C     6      0.083233      4.165933     18.432938   4.0000  12.0107
     73    4 H     1      0.630688      4.659533     18.999400   1.0000   1.0079
     74    3 C     6      0.010361      4.484051     17.116887   4.0000  12.0107
     75    3 C     6     -0.833586      3.780814     16.328977   4.0000  12.0107
     76    4 H     1     -0.926272      4.014610     15.433659   1.0000   1.0079
     77    3 C     6     -1.544819      2.747072     16.820149   4.0000  12.0107
     78    4 H     1     -2.099404      2.263342     16.251966   1.0000   1.0079
     79    3 C     6      1.878615      0.128936     16.950229   4.0000  12.0107
     80    4 H     1      2.252043      5.174219     17.568839   1.0000   1.0079
     81    3 C     6      2.669549      1.234184     16.490550   4.0000  12.0107
     82    3 C     6    -12.404080      1.399154     17.044121   4.0000  12.0107
     83    4 H     1    -12.093736      0.784619     17.669656   1.0000   1.0079
     84    3 C     6    -11.626545      2.453728     16.693395   4.0000  12.0107
     85    3 C     6    -12.059852      3.330945     15.766799   4.0000  12.0107
     86    4 H     1    -11.526134      4.049541     15.513233   1.0000   1.0079
     87    3 C     6      3.014184      3.152461     15.208534   4.0000  12.0107
     88    4 H     1      2.714629      3.753180     14.564846   1.0000   1.0079
     89    3 C     6      2.225037      2.122661     15.567866   4.0000  12.0107
     90    4 H     1      1.381960      2.021573     15.186958   1.0000   1.0079
     91    3 C     6     -7.572463      0.600201     17.875064   4.0000  12.0107
     92    4 H     1     -7.914679      0.008637     18.549853   1.0000   1.0079
     93    4 H     1     -7.123192      0.088105     17.199003   1.0000   1.0079
     94    4 H     1     -8.299628      1.085947     17.478019   1.0000   1.0079
     95    3 C     6     -9.714622      3.708744     17.174982   4.0000  12.0107
     96    4 H     1     -8.936902      3.677327     17.737141   1.0000   1.0079
     97    4 H     1    -10.264823      4.452357     17.431249   1.0000   1.0079
     98    4 H     1     -9.443653      3.811437     16.259693   1.0000   1.0079
     99    1 O     8      5.582263      1.775828     10.099640   6.0000  15.9994
    100    1 O     8      0.966495      1.316388      8.675026   6.0000  15.9994
    101    1 O     8     -2.798094      0.289966      7.535217   6.0000  15.9994
    102    2 N     7      8.350646      2.900782      6.779583   5.0000  14.0067
    103    3 C     6      2.828215      4.089923      6.512773   4.0000  12.0107
    104    4 H     1      3.269833      3.432343      6.025103   1.0000   1.0079
    105    3 C     6      1.972394      4.914776      5.897586   4.0000  12.0107
    106    4 H     1      1.822602      4.816959      4.985015   1.0000   1.0079
    107    3 C     6      1.318906      0.262377      6.577715   4.0000  12.0107
    108    4 H     1      0.725449      0.828896      6.138829   1.0000   1.0079
    109    3 C     6      1.543086      0.395817      7.895136   4.0000  12.0107
    110    3 C     6      2.410975      5.192918      8.526168   4.0000  12.0107
    111    4 H     1      2.565197      5.298950      9.437115   1.0000   1.0079
    112    3 C     6      3.056600      4.210976      7.851516   4.0000  12.0107
    113    3 C     6      3.941211      3.347273      8.572136   4.0000  12.0107
    114    4 H     1      4.082585      3.555586      9.467317   1.0000   1.0079
    115    3 C     6      4.562910      2.311842      8.120477   4.0000  12.0107
    116    4 H     1      4.438441      2.067038      7.231985   1.0000   1.0079
    117    3 C     6      5.443371      1.521334      8.939879   4.0000  12.0107
    118    3 C     6      6.174989      0.415524      8.348751   4.0000  12.0107
    119    3 C     6      7.002323      5.310030      9.143116   4.0000  12.0107
    120    4 H     1      7.072995      5.522927     10.045711   1.0000   1.0079
    121    3 C     6      7.722875      4.279667      8.652531   4.0000  12.0107
    122    4 H     1      8.270331      3.786067      9.218993   1.0000   1.0079
    123    3 C     6      7.650003      3.961549      7.336479   4.0000  12.0107
    124    3 C     6      6.806056      4.664786      6.548570   4.0000  12.0107
    125    4 H     1      6.713370      4.430990      5.653252   1.0000   1.0079
    126    3 C     6      6.094824      0.068128      7.039742   4.0000  12.0107
    127    4 H     1      5.540238      0.551858      6.471559   1.0000   1.0079
    128    3 C     6      9.518258      2.686264      7.169821   4.0000  12.0107
    129    4 H     1      9.891686      3.271381      7.788432   1.0000   1.0079
    130    3 C     6     10.309191      1.581016      6.710142   4.0000  12.0107
    131    3 C     6     -4.764437      1.416046      7.263713   4.0000  12.0107
    132    4 H     1     -4.454093      2.030581      7.889248   1.0000   1.0079
    133    3 C     6     -3.986902      0.361472      6.912988   4.0000  12.0107
    134    3 C     6     -4.420210      5.114655      5.986392   4.0000  12.0107
    135    4 H     1     -3.886491      4.396059      5.732825   1.0000   1.0079
    136    3 C     6     10.653827      5.293139      5.428126   4.0000  12.0107
    137    4 H     1     10.354272      4.692420      4.784438   1.0000   1.0079
    138    3 C     6      9.864680      0.692539      5.787458   4.0000  12.0107
    139    4 H     1      9.021603      0.793627      5.406551   1.0000   1.0079
    140    3 C     6      0.067180      2.214999      8.094656   4.0000  12.0107
    141    4 H     1     -0.275036      2.806563      8.769446   1.0000   1.0079
    142    4 H     1      0.516450      2.727096      7.418596   1.0000   1.0079
    143    4 H     1     -0.659985      1.729253      7.697611   1.0000   1.0079
    144    3 C     6     -2.074979      4.736856      7.394575   4.0000  12.0107
    145    4 H     1     -1.297259      4.768273      7.956733   1.0000   1.0079
    146    4 H     1     -2.625180      3.993243      7.650841   1.0000   1.0079
    147    4 H     1     -1.804010      4.634163      6.479285   1.0000   1.0079
    148    1 O     8    -12.204190      4.591028     19.241583   6.0000  15.9994
    149    1 O     8      7.690863      4.131588      1.105382   6.0000  15.9994
    150    1 O     8     11.455451      3.105166      2.245190   6.0000  15.9994
    151    2 N     7      0.306712      0.085582      3.000825   5.0000  14.0067
    152    3 C     6      5.829143      1.274723      3.267634   4.0000  12.0107
    153    4 H     1      5.387525      0.617143      3.755305   1.0000   1.0079
    154    3 C     6      6.684963      2.099576      3.882822   4.0000  12.0107
    155    4 H     1      6.834755      2.001759      4.795393   1.0000   1.0079
    156    3 C     6      7.338451      3.077577      3.202692   4.0000  12.0107
    157    4 H     1      7.931909      3.644096      3.641578   1.0000   1.0079
    158    3 C     6      7.114272      3.211017      1.885271   4.0000  12.0107
    159    3 C     6      6.246382      2.377718      1.254239   4.0000  12.0107
    160    4 H     1      6.092160      2.483750      0.343292   1.0000   1.0079
    161    3 C     6      5.600757      1.395776      1.928892   4.0000  12.0107
    162    3 C     6      4.716147      0.532073      1.208272   4.0000  12.0107
    163    4 H     1      4.574772      0.740386      0.313090   1.0000   1.0079
    164    3 C     6      4.094447      5.127042      1.659931   4.0000  12.0107
    165    4 H     1      4.218916      4.882238      2.548422   1.0000   1.0079
    166    3 C     6      3.213987      4.336534      0.840528   4.0000  12.0107
    167    3 C     6      2.482368      3.230724      1.431656   4.0000  12.0107
    168    3 C     6      1.655035      2.494830      0.637291   4.0000  12.0107
    169    4 H     1    -13.694923      2.707727     19.295512   1.0000   1.0079
    170    3 C     6      0.934482      1.464467      1.127877   4.0000  12.0107
    171    4 H     1      0.387026      0.970867      0.561415   1.0000   1.0079
    172    3 C     6      1.007354      1.146349      2.443928   4.0000  12.0107
    173    3 C     6      1.851301      1.849586      3.231838   4.0000  12.0107
    174    4 H     1      1.943987      1.615790      4.127156   1.0000   1.0079
    175    3 C     6      2.562534      2.883328      2.740666   4.0000  12.0107
    176    4 H     1      3.117119      3.367058      3.308849   1.0000   1.0079
    177    3 C     6     -0.860900      5.501464      2.610586   4.0000  12.0107
    178    4 H     1     -1.234328      0.456181      1.991976   1.0000   1.0079
    179    3 C     6     -1.651834      4.396216      3.070266   4.0000  12.0107
    180    3 C     6     13.421795      4.231246      2.516694   4.0000  12.0107
    181    4 H     1     13.111450      4.845781      1.891159   1.0000   1.0079
    182    3 C     6     12.644260      3.176672      2.867420   4.0000  12.0107
    183    3 C     6     13.077567      2.299455      3.794016   4.0000  12.0107
    184    4 H     1     12.543849      1.580859      4.047583   1.0000   1.0079
    185    3 C     6     -1.996469      2.477939      4.352281   4.0000  12.0107
    186    4 H     1     -1.696914      1.877220      4.995969   1.0000   1.0079
    187    3 C     6     -1.207322      3.507739      3.992949   4.0000  12.0107
    188    4 H     1     -0.364245      3.608827      4.373857   1.0000   1.0079
    189    3 C     6      8.590177      5.030199      1.685751   4.0000  12.0107
    190    4 H     1      8.932394      5.621763      1.010962   1.0000   1.0079
    191    4 H     1      8.140907      5.542295      2.361812   1.0000   1.0079
    192    4 H     1      9.317343      4.544453      2.082796   1.0000   1.0079
    193    3 C     6     10.732337      1.921656      2.385833   4.0000  12.0107
    194    4 H     1      9.954616      1.953073      1.823674   1.0000   1.0079
    195    4 H     1     11.282538      1.178043      2.129566   1.0000   1.0079
    196    4 H     1     10.461368      1.818963      3.301122   1.0000   1.0079



 SCF PARAMETERS         Density guess:                                    ATOMIC
                        --------------------------------------------------------
                        max_scf:                                             300
                        max_scf_history:                                       0
                        max_diis:                                              4
                        --------------------------------------------------------
                        eps_scf:                                        1.00E-06
                        eps_scf_history:                                0.00E+00
                        eps_diis:                                       1.00E-01
                        eps_eigval:                                     1.00E-05
                        --------------------------------------------------------
                        level_shift [a.u.]:                             0.000000
                        --------------------------------------------------------
                        Mixing method:                           DIRECT_P_MIXING
                        --------------------------------------------------------
                        No outer SCF

 PW_GRID| Information for grid number                                          1
 PW_GRID| Grid distributed over                                    88 processors
 PW_GRID| Real space group dimensions                                    88    1
 PW_GRID| the grid is blocked:                                                NO
 PW_GRID| Cutoff [a.u.]                                                    175.0
 PW_GRID| spherical cutoff:                                                   NO
 PW_GRID|   Bounds   1            -96      95                Points:         192
 PW_GRID|   Bounds   2            -32      31                Points:          64
 PW_GRID|   Bounds   3           -144     143                Points:         288
 PW_GRID| Volume element (a.u.^3)  0.3423E-02     Volume (a.u.^3)     12112.4074
 PW_GRID| Grid span                                                    FULLSPACE
 PW_GRID|   Distribution                         Average         Max         Min
 PW_GRID|   G-Vectors                            40215.3       40320       40128
 PW_GRID|   G-Rays                                 209.5         210         209
 PW_GRID|   Real Space Points                    40215.3       55296       36864

 PW_GRID| Information for grid number                                          2
 PW_GRID| Number of the reference grid                                         1
 PW_GRID| Grid distributed over                                    88 processors
 PW_GRID| Real space group dimensions                                    88    1
 PW_GRID| the grid is blocked:                                                NO
 PW_GRID| Cutoff [a.u.]                                                     58.3
 PW_GRID| spherical cutoff:                                                   NO
 PW_GRID|   Bounds   1            -54      53                Points:         108
 PW_GRID|   Bounds   2            -20      19                Points:          40
 PW_GRID|   Bounds   3            -81      80                Points:         162
 PW_GRID| Volume element (a.u.^3)  0.1731E-01     Volume (a.u.^3)     12112.4074
 PW_GRID| Grid span                                                    FULLSPACE
 PW_GRID|   Distribution                         Average         Max         Min
 PW_GRID|   G-Vectors                             7952.7        9396        6588
 PW_GRID|   G-Rays                                  73.6          87          61
 PW_GRID|   Real Space Points                     7952.7       12960        6480

 PW_GRID| Information for grid number                                          3
 PW_GRID| Number of the reference grid                                         1
 PW_GRID| Grid distributed over                                    88 processors
 PW_GRID| Real space group dimensions                                     8   11
 PW_GRID| the grid is blocked:                                                NO
 PW_GRID| Cutoff [a.u.]                                                     19.4
 PW_GRID| spherical cutoff:                                                   NO
 PW_GRID|   Bounds   1            -32      31                Points:          64
 PW_GRID|   Bounds   2            -12      11                Points:          24
 PW_GRID|   Bounds   3            -48      47                Points:          96
 PW_GRID| Volume element (a.u.^3)  0.8214E-01     Volume (a.u.^3)     12112.4074
 PW_GRID| Grid span                                                    FULLSPACE
 PW_GRID|   Distribution                         Average         Max         Min
 PW_GRID|   G-Vectors                             1675.6        2176        1280
 PW_GRID|   G-Rays                                  26.2          34          20
 PW_GRID|   Real Space Points                     1675.6        2304        1536

 PW_GRID| Information for grid number                                          4
 PW_GRID| Number of the reference grid                                         1
 PW_GRID| Grid distributed over                                    88 processors
 PW_GRID| Real space group dimensions                                     8   11
 PW_GRID| the grid is blocked:                                                NO
 PW_GRID| Cutoff [a.u.]                                                      6.5
 PW_GRID| spherical cutoff:                                                   NO
 PW_GRID|   Bounds   1            -18      17                Points:          36
 PW_GRID|   Bounds   2             -7       7                Points:          15
 PW_GRID|   Bounds   3            -27      26                Points:          54
 PW_GRID| Volume element (a.u.^3)  0.4154         Volume (a.u.^3)     12112.4074
 PW_GRID| Grid span                                                    FULLSPACE
 PW_GRID|   Distribution                         Average         Max         Min
 PW_GRID|   G-Vectors                              331.4         540         144
 PW_GRID|   G-Rays                                   9.2          15           4
 PW_GRID|   Real Space Points                      331.4         540         216

 POISSON| Solver                                                        PERIODIC
 POISSON| Periodicity                                                        XYZ

 RS_GRID| Information for grid number                                          1
 RS_GRID|   Bounds   1            -96      95                Points:         192
 RS_GRID|   Bounds   2            -32      31                Points:          64
 RS_GRID|   Bounds   3           -144     143                Points:         288
 RS_GRID| Real space distribution over                                  8 groups
 RS_GRID| Real space distribution along direction                              1
 RS_GRID| Border size                                                         42
 RS_GRID| Real space distribution over                                 11 groups
 RS_GRID| Real space distribution along direction                              3
 RS_GRID| Border size                                                         42
 RS_GRID|   Distribution                         Average         Max         Min
 RS_GRID|   Planes                                 108.0         108         108
 RS_GRID|   Distribution                         Average         Max         Min
 RS_GRID|   Planes                                 110.2         111         110

 RS_GRID| Information for grid number                                          2
 RS_GRID|   Bounds   1            -54      53                Points:         108
 RS_GRID|   Bounds   2            -20      19                Points:          40
 RS_GRID|   Bounds   3            -81      80                Points:         162
 RS_GRID| Real space fully replicated
 RS_GRID| Group size                                                           1

 RS_GRID| Information for grid number                                          3
 RS_GRID|   Bounds   1            -32      31                Points:          64
 RS_GRID|   Bounds   2            -12      11                Points:          24
 RS_GRID|   Bounds   3            -48      47                Points:          96
 RS_GRID| Real space fully replicated
 RS_GRID| Group size                                                           1

 RS_GRID| Information for grid number                                          4
 RS_GRID|   Bounds   1            -18      17                Points:          36
 RS_GRID|   Bounds   2             -7       7                Points:          15
 RS_GRID|   Bounds   3            -27      26                Points:          54
 RS_GRID| Real space fully replicated
 RS_GRID| Group size                                                           1

 BFGS| Use rational function optimization for step estimation:                NO
 BFGS| Use model Hessian for initial guess:                                  YES
 BFGS| Restart Hessian:                                                       NO
 BFGS| Trust radius:                                                       0.472

 *******************************************************************************
 ***                     STARTING GEOMETRY OPTIMIZATION                      ***
 ***                                   BFGS                                  ***
 *******************************************************************************

 Number of electrons:                                                        560
 Number of occupied orbitals:                                                280
 Number of molecular orbitals:                                               280

 Number of orbital functions:                                               2408
 Number of independent orbital functions:                                   2408

 Extrapolation method: initial_guess

 Atomic guess: The first density matrix is obtained in terms of atomic orbitals
               and electronic configurations assigned to each atomic kind

 Guess for atomic kind: O

 Electronic structure
    Total number of core electrons                                          2.00
    Total number of valence electrons                                       6.00
    Total number of electrons                                               8.00
    Multiplicity                                                   not specified
    S   [  2.00] 2.00
    P      4.00


 *******************************************************************************
                  Iteration          Convergence                     Energy [au]
 *******************************************************************************
                          1        0.577491                     -15.568616633298
                          2        0.659429                     -15.574385699476
                          3        0.252248E-01                 -15.656217861375
                          4        0.156627E-02                 -15.656397101845
                          5        0.161710E-04                 -15.656397459300
                          6        0.346702E-06                 -15.656397459369

 Energy components [Hartree]           Total Energy ::          -15.656397459369
                                        Band Energy ::           -3.001886830830
                                     Kinetic Energy ::           11.780460877478
                                   Potential Energy ::          -27.436858336847
                                      Virial (-V/T) ::            2.329014002271
                                        Core Energy ::          -26.138300535672
                                          XC Energy ::           -3.153767183935
                                     Coulomb Energy ::           13.635670260237
                       Total Pseudopotential Energy ::          -37.953932103637
                       Local Pseudopotential Energy ::          -39.253303299158
                    Nonlocal Pseudopotential Energy ::            1.299371195522
                                        Confinement ::            0.351706904867

 Orbital energies  State     L     Occupation   Energy[a.u.]          Energy[eV]

                       1     0          2.000      -0.864888          -23.534800

                       1     1          4.000      -0.318028           -8.653974


 Total Electron Density at R=0:                                         0.000125

 Guess for atomic kind: N

 Electronic structure
    Total number of core electrons                                          2.00
    Total number of valence electrons                                       5.00
    Total number of electrons                                               7.00
    Multiplicity                                                   not specified
    S   [  2.00] 2.00
    P      3.00


 *******************************************************************************
                  Iteration          Convergence                     Energy [au]
 *******************************************************************************
                          1        0.271988                      -9.512616220151
                          2        0.247955                      -9.522554716740
                          3        0.504788E-02                  -9.546164505587
                          4        0.458466E-03                  -9.546178122964
                          5        0.244989E-05                  -9.546178176956
                          6        0.114677E-05                  -9.546178176959
                          7        0.269739E-08                  -9.546178176959

 Energy components [Hartree]           Total Energy ::           -9.546178176959
                                        Band Energy ::           -2.056052167563
                                     Kinetic Energy ::            6.750514589450
                                   Potential Energy ::          -16.296692766410
                                      Virial (-V/T) ::            2.414140811114
                                        Core Energy ::          -15.541752718363
                                          XC Energy ::           -2.162895801542
                                     Coulomb Energy ::            8.158470342945
                       Total Pseudopotential Energy ::          -22.329540620284
                       Local Pseudopotential Energy ::          -23.278432410601
                    Nonlocal Pseudopotential Energy ::            0.948891790316
                                        Confinement ::            0.372733124714

 Orbital energies  State     L     Occupation   Energy[a.u.]          Energy[eV]

                       1     0          2.000      -0.663798          -18.062862

                       1     1          3.000      -0.242819           -6.607433


 Total Electron Density at R=0:                                         0.000098

 Guess for atomic kind: C

 Electronic structure
    Total number of core electrons                                          2.00
    Total number of valence electrons                                       4.00
    Total number of electrons                                               6.00
    Multiplicity                                                   not specified
    S   [  2.00] 2.00
    P      2.00


 *******************************************************************************
                  Iteration          Convergence                     Energy [au]
 *******************************************************************************
                          1        0.989032E-01                  -5.274804028878
                          2        0.626412E-01                  -5.279859793703
                          3        0.811567E-03                  -5.283752722279
                          4        0.832201E-04                  -5.283753018164
                          5        0.104768E-06                  -5.283753025329

 Energy components [Hartree]           Total Energy ::           -5.283753025329
                                        Band Energy ::           -1.317239350806
                                     Kinetic Energy ::            3.389251109490
                                   Potential Energy ::           -8.673004134819
                                      Virial (-V/T) ::            2.558973606451
                                        Core Energy ::           -8.295157719552
                                          XC Energy ::           -1.377263451845
                                     Coulomb Energy ::            4.388668146068
                       Total Pseudopotential Energy ::          -11.718697935603
                       Local Pseudopotential Energy ::          -12.368442815308
                    Nonlocal Pseudopotential Energy ::            0.649744879704
                                        Confinement ::            0.342891065612

 Orbital energies  State     L     Occupation   Energy[a.u.]          Energy[eV]

                       1     0          2.000      -0.484434          -13.182123

                       1     1          2.000      -0.174186           -4.739829


 Total Electron Density at R=0:                                         0.000068

 Guess for atomic kind: H

 Electronic structure
    Total number of core electrons                                          0.00
    Total number of valence electrons                                       1.00
    Total number of electrons                                               1.00
    Multiplicity                                                   not specified
    S      1.00


 *******************************************************************************
                  Iteration          Convergence                     Energy [au]
 *******************************************************************************
                          1        0.440266E-02                  -0.423513531970
                          2        0.325828E-03                  -0.423525175186
                          3        0.252148E-04                  -0.423525335541
                          4        0.637775E-08                  -0.423525336420

 Energy components [Hartree]           Total Energy ::           -0.423525336420
                                        Band Energy ::           -0.195262559383
                                     Kinetic Energy ::            0.470173284674
                                   Potential Energy ::           -0.893698621094
                                      Virial (-V/T) ::            1.900785625696
                                        Core Energy ::           -0.479699819139
                                          XC Energy ::           -0.247097449670
                                     Coulomb Energy ::            0.303271932388
                       Total Pseudopotential Energy ::           -0.967738859557
                       Local Pseudopotential Energy ::           -0.967738859557
                    Nonlocal Pseudopotential Energy ::            0.000000000000
                                        Confinement ::            0.178657557441

 Orbital energies  State     L     Occupation   Energy[a.u.]          Energy[eV]

                       1     0          1.000      -0.195263           -5.313364


 Total Electron Density at R=0:                                         0.240075
 Re-scaling the density matrix to get the right number of electrons
                  # Electrons              Trace(P)               Scaling factor
                          560               559.552                        1.001


 SCF WAVEFUNCTION OPTIMIZATION

  Step     Update method      Time    Convergence         Total energy    Change
  ------------------------------------------------------------------------------
     1 P_Mix/Diag. 0.40E+00    0.8    17.73276223      -823.7286832252 -8.24E+02
     2 P_Mix/Diag. 0.40E+00    1.3    10.22800074      -825.2323613166 -1.50E+00
     3 P_Mix/Diag. 0.40E+00    1.3     6.74498769      -825.5633488749 -3.31E-01
     4 P_Mix/Diag. 0.40E+00    1.2     4.01280986      -825.6727090507 -1.09E-01
     5 P_Mix/Diag. 0.40E+00    1.3     2.63243387      -825.7202459493 -4.75E-02
     6 P_Mix/Diag. 0.40E+00    1.3     1.48184835      -825.7447906746 -2.45E-02
     7 P_Mix/Diag. 0.40E+00    1.2     0.94157623      -825.7586321779 -1.38E-02
     8 P_Mix/Diag. 0.40E+00    1.3     0.51274704      -825.7667475676 -8.12E-03
     9 P_Mix/Diag. 0.40E+00    1.6     0.32190439      -825.7715810513 -4.83E-03
    10 P_Mix/Diag. 0.40E+00    1.2     0.17003573      -825.7744768860 -2.90E-03
    11 P_Mix/Diag. 0.40E+00    1.3     0.10664624      -825.7762152641 -1.74E-03
    12 P_Mix/Diag. 0.40E+00    1.2     0.05438432      -825.7772593216 -1.04E-03
    13 DIIS/Diag.  0.19E-03    1.2     0.03147759      -825.7778863566 -6.27E-04
    14 DIIS/Diag.  0.17E-04    1.2     0.00227845      -825.7788284681 -9.42E-04
    15 DIIS/Diag.  0.15E-04    1.4     0.00030678      -825.7788284810 -1.29E-08
    16 DIIS/Diag.  0.26E-04    1.3     0.00012248      -825.7788284786  2.36E-09
    17 DIIS/Diag.  0.56E-05    1.2     0.00004268      -825.7788284828 -4.18E-09
    18 DIIS/Diag.  0.15E-05    1.1     0.00001911      -825.7788284831 -2.59E-10
    19 DIIS/Diag.  0.21E-06    1.1     0.00000628      -825.7788284831 -3.40E-11
    20 DIIS/Diag.  0.37E-06    1.1     0.00000477      -825.7788284831  1.14E-12
    21 DIIS/Diag.  0.89E-07    1.6     0.00000080      -825.7788284831 -1.48E-12

  *** SCF run converged in    21 steps ***


  Electronic density on regular grids:       -559.9999997269        0.0000002731
  Core density on regular grids:              559.9999999610       -0.0000000390
  Total charge density on r-space grids:        0.0000002342
  Total charge density g-space grids:           0.0000002342

  Overlap energy of the core charge distribution:               0.00133221693382
  Self energy of the core charge distribution:              -1996.35753382145731
  Core Hamiltonian energy:                                    642.02363834079108
  Hartree energy:                                             785.56050972611672
  Exchange-correlation energy:                               -257.00677494549677

  Total energy:                                              -825.77882848311253

 !-----------------------------------------------------------------------------!
                     Mulliken Population Analysis

 #  Atom  Element  Kind  Atomic population                           Net charge
       1     O        1          6.391170                             -0.391170
[...]
     99       O      1       6.000          6.694                        -0.694
    100       O      1       6.000          6.487                        -0.487
    101       O      1       6.000          6.533                        -0.533
    102       N      2       5.000          5.398                        -0.398
    103       C      3       4.000          4.505                        -0.505
    104       H      4       1.000          0.552                         0.448
    105       C      3       4.000          4.448                        -0.448
    106       H      4       1.000          0.542                         0.458
    107       C      3       4.000          4.505                        -0.505
    108       H      4       1.000          0.548                         0.452
    109       C      3       4.000          3.804                         0.196
    110       C      3       4.000          4.387                        -0.387
    111       H      4       1.000          0.542                         0.458
    112       C      3       4.000          3.987                         0.013
    113       C      3       4.000          4.360                        -0.360
    114       H      4       1.000          0.545                         0.455
    115       C      3       4.000          4.442                        -0.442
    116       H      4       1.000          0.555                         0.445
    117       C      3       4.000          3.715                         0.285
    118       C      3       4.000          4.006                        -0.006
    119       C      3       4.000          4.368                        -0.368
    120       H      4       1.000          0.542                         0.458
    121       C      3       4.000          4.445                        -0.445
    122       H      4       1.000          0.551                         0.449
    123       C      3       4.000          3.876                         0.124
    124       C      3       4.000          4.427                        -0.427
    125       H      4       1.000          0.547                         0.453
    126       C      3       4.000          4.423                        -0.423
    127       H      4       1.000          0.554                         0.446
    128       C      3       4.000          4.221                        -0.221
    129       H      4       1.000          0.544                         0.456
    130       C      3       4.000          4.002                        -0.002
    131       C      3       4.000          4.401                        -0.401
    132       H      4       1.000          0.531                         0.469
    133       C      3       4.000          3.804                         0.196
    134       C      3       4.000          4.442                        -0.442
    135       H      4       1.000          0.545                         0.455
    136       C      3       4.000          4.436                        -0.436
    137       H      4       1.000          0.550                         0.450
    138       C      3       4.000          4.448                        -0.448
    139       H      4       1.000          0.545                         0.455
    140       C      3       4.000          4.950                        -0.950
    141       H      4       1.000          0.549                         0.451
    142       H      4       1.000          0.556                         0.444
    143       H      4       1.000          0.554                         0.446
    144       C      3       4.000          4.969                        -0.969
    145       H      4       1.000          0.556                         0.444
    146       H      4       1.000          0.551                         0.449
    147       H      4       1.000          0.558                         0.442
    148       O      1       6.000          6.694                        -0.694
    149       O      1       6.000          6.487                        -0.487
    150       O      1       6.000          6.533                        -0.533
    151       N      2       5.000          5.398                        -0.398
    152       C      3       4.000          4.505                        -0.505
    153       H      4       1.000          0.552                         0.448
    154       C      3       4.000          4.448                        -0.448
    155       H      4       1.000          0.542                         0.458
    156       C      3       4.000          4.505                        -0.505
    157       H      4       1.000          0.548                         0.452
    158       C      3       4.000          3.804                         0.196
    159       C      3       4.000          4.387                        -0.387
    160       H      4       1.000          0.542                         0.458
    161       C      3       4.000          3.987                         0.013
    162       C      3       4.000          4.360                        -0.360
    163       H      4       1.000          0.545                         0.455
    164       C      3       4.000          4.442                        -0.442
    165       H      4       1.000          0.555                         0.445
    166       C      3       4.000          3.715                         0.285
    167       C      3       4.000          4.006                        -0.006
    168       C      3       4.000          4.368                        -0.368
    169       H      4       1.000          0.542                         0.458
    170       C      3       4.000          4.445                        -0.445
    171       H      4       1.000          0.551                         0.449
    172       C      3       4.000          3.876                         0.124
    173       C      3       4.000          4.427                        -0.427
    174       H      4       1.000          0.547                         0.453
    175       C      3       4.000          4.423                        -0.423
    176       H      4       1.000          0.554                         0.446
    177       C      3       4.000          4.221                        -0.221
    178       H      4       1.000          0.544                         0.456
    179       C      3       4.000          4.002                        -0.002
    180       C      3       4.000          4.401                        -0.401
    181       H      4       1.000          0.531                         0.469
    182       C      3       4.000          3.804                         0.196
    183       C      3       4.000          4.442                        -0.442
    184       H      4       1.000          0.545                         0.455
    185       C      3       4.000          4.436                        -0.436
    186       H      4       1.000          0.550                         0.450
    187       C      3       4.000          4.448                        -0.448
    188       H      4       1.000          0.545                         0.455
    189       C      3       4.000          4.950                        -0.950
    190       H      4       1.000          0.549                         0.451
    191       H      4       1.000          0.556                         0.444
    192       H      4       1.000          0.554                         0.446
    193       C      3       4.000          4.969                        -0.969
    194       H      4       1.000          0.556                         0.444
    195       H      4       1.000          0.551                         0.449
    196       H      4       1.000          0.558                         0.442

  Total Charge                                                            0.000
 !-----------------------------------------------------------------------------!

 ENERGY| Total FORCE_EVAL ( QS ) energy [a.u.]:             -827.692019715315269

 --------  Informations at step =     2 ------------
  Optimization Method        =                 BFGS
  Total Energy               =      -827.6920197153
  Real energy change         =        -0.0933239770
  Predicted change in energy =        -0.0780784615
  Scaling factor             =         0.0000000000
  Step size                  =         0.0957109854
  Trust radius               =         0.4724315332
  Decrease in energy         =                  YES
  Used time                  =               36.476

  Convergence check :
  Max. step size             =         0.0957109854
  Conv. limit for step size  =         0.0030000000
  Convergence in step size   =                   NO
  RMS step size              =         0.0334972437
  Conv. limit for RMS step   =         0.0015000000
  Convergence in RMS step    =                   NO
  Max. gradient              =         0.0127109128
  Conv. limit for gradients  =         0.0004500000
  Conv. for gradients        =                   NO
  RMS gradient               =         0.0048681490
  Conv. limit for RMS grad.  =         0.0003000000
  Conv. for gradients        =                   NO
 ---------------------------------------------------
 Estimated peak process memory after this step [MiB]                         705

 --------------------------
 OPTIMIZATION STEP:      3
 --------------------------

 Number of electrons:                                                        560
 Number of occupied orbitals:                                                280
 Number of molecular orbitals:                                               280

 Number of orbital functions:                                               2408
 Number of independent orbital functions:                                   2408

 Parameters for the always stable predictor-corrector (ASPC) method:

  ASPC order: 1

  B(1) =   2.500000
  B(2) =  -2.000000
  B(3) =   0.500000

 Extrapolation method: ASPC


 SCF WAVEFUNCTION OPTIMIZATION

  Step     Update method      Time    Convergence         Total energy    Change
  ------------------------------------------------------------------------------
     1 P_Mix/Diag. 0.40E+00    0.8     9.71938035      -827.0800794874 -8.27E+02
     2 P_Mix/Diag. 0.40E+00    1.1     5.87626756      -827.3265561869 -2.46E-01
     3 P_Mix/Diag. 0.40E+00    1.6     3.50274048      -827.4759256665 -1.49E-01
     4 P_Mix/Diag. 0.40E+00    1.6     2.09519452      -827.5660333438 -9.01E-02
     5 P_Mix/Diag. 0.40E+00    1.6     1.24770613      -827.6202728680 -5.42E-02
     6 P_Mix/Diag. 0.40E+00    1.6     0.75075939      -827.6528700621 -3.26E-02
     7 P_Mix/Diag. 0.40E+00    1.4     0.46955690      -827.6724306679 -1.96E-02
     8 P_Mix/Diag. 0.40E+00    1.1     0.27182914      -827.6841445569 -1.17E-02
     9 P_Mix/Diag. 0.40E+00    1.1     0.23490702      -827.6911346897 -6.99E-03
    10 P_Mix/Diag. 0.40E+00    1.1     0.11512578      -827.6952797427 -4.15E-03
    11 P_Mix/Diag. 0.40E+00    1.1     0.16243989      -827.6977047492 -2.43E-03
    12 P_Mix/Diag. 0.40E+00    1.1     0.11577350      -827.6990876354 -1.38E-03
    13 P_Mix/Diag. 0.40E+00    1.1     0.15092873      -827.6998280821 -7.40E-04
    14 P_Mix/Diag. 0.40E+00    1.1     0.13621460      -827.7001708766 -3.43E-04
    15 P_Mix/Diag. 0.40E+00    1.1     0.16425853      -827.7002502306 -7.94E-05
    16 P_Mix/Diag. 0.40E+00    1.1     0.17172050      -827.7001561380  9.41E-05
    17 P_Mix/Diag. 0.40E+00    1.1     0.18995036      -827.6999214415  2.35E-04
    18 P_Mix/Diag. 0.40E+00    1.1     0.20854462      -827.6995831211  3.38E-04
    19 P_Mix/Diag. 0.40E+00    1.1     0.22417808      -827.6991286174  4.55E-04
    20 P_Mix/Diag. 0.40E+00    1.1     0.25083117      -827.6985809704  5.48E-04
    21 P_Mix/Diag. 0.40E+00    1.1     0.26637752      -827.6978971932  6.84E-04
    22 P_Mix/Diag. 0.40E+00    1.1     0.30120709      -827.6971046783  7.93E-04
    23 P_Mix/Diag. 0.40E+00    1.1     0.31732442      -827.6961269798  9.78E-04
    24 P_Mix/Diag. 0.40E+00    1.1     0.36203924      -827.6950098242  1.12E-03
    25 P_Mix/Diag. 0.40E+00    1.1     0.37846553      -827.6936284795  1.38E-03
    26 P_Mix/Diag. 0.40E+00    1.1     0.43596680      -827.6920649346  1.56E-03
    27 P_Mix/Diag. 0.40E+00    1.1     0.45169830      -827.6901183251  1.95E-03
    28 P_Mix/Diag. 0.40E+00    1.1     0.52619162      -827.6879357584  2.18E-03
    29 P_Mix/Diag. 0.40E+00    1.1     0.53930086      -827.6851931436  2.74E-03
    30 P_Mix/Diag. 0.40E+00    1.1     0.63670187      -827.6821519165  3.04E-03
    31 P_Mix/Diag. 0.40E+00    1.1     0.64389129      -827.6782864996  3.87E-03
    32 P_Mix/Diag. 0.40E+00    1.1     0.77248980      -827.6740575066  4.23E-03
    33 P_Mix/Diag. 0.40E+00    1.1     0.76835188      -827.6686080620  5.45E-03
    34 P_Mix/Diag. 0.40E+00    1.1     0.93977586      -827.6627441983  5.86E-03
    35 P_Mix/Diag. 0.40E+00    1.1     0.91566881      -827.6550626486  7.68E-03
    36 P_Mix/Diag. 0.40E+00    1.1     1.14622808      -827.6469654957  8.10E-03
    37 P_Mix/Diag. 0.40E+00    1.1     1.08864820      -827.6361484861  1.08E-02
    38 P_Mix/Diag. 0.40E+00    1.1     1.40116795      -827.6250340792  1.11E-02
    39 P_Mix/Diag. 0.40E+00    1.1     1.28950755      -827.6098395574  1.52E-02
    40 P_Mix/Diag. 0.40E+00    1.1     1.71584383      -827.5947102855  1.51E-02
    41 P_Mix/Diag. 0.40E+00    1.1     1.51944522      -827.5734649851  2.12E-02
    42 P_Mix/Diag. 0.40E+00    1.1     2.10422910      -827.5530930610  2.04E-02
    43 P_Mix/Diag. 0.40E+00    1.1     1.77846193      -827.5235954802  2.95E-02
    44 P_Mix/Diag. 0.40E+00    1.1     2.58610258      -827.4964988100  2.71E-02
    45 P_Mix/Diag. 0.40E+00    1.1     2.06577602      -827.4558804640  4.06E-02
    46 P_Mix/Diag. 0.40E+00    1.1     3.19923547      -827.4201677272  3.57E-02
    47 P_Mix/Diag. 0.40E+00    1.1     2.41824249      -827.3644705887  5.57E-02
    48 P_Mix/Diag. 0.40E+00    1.1     4.06134090      -827.3169487708  4.75E-02
    49 P_Mix/Diag. 0.40E+00    1.1     2.83214406      -827.2390261019  7.79E-02
    50 P_Mix/Diag. 0.40E+00    1.1     4.55692435      -827.1640800961  7.49E-02
    51 P_Mix/Diag. 0.40E+00    1.1    53.48201179      -826.2220625064  9.42E-01
    52 P_Mix/Diag. 0.40E+00    1.0 28763.41987746      -811.4338154565  1.48E+01
    53 P_Mix/Diag. 0.40E+00    1.1 55747.07267034       240.2500693173  1.05E+03
    54 P_Mix/Diag. 0.40E+00    1.1 26943.44947926       680.3729594527  4.40E+02
    55 P_Mix/Diag. 0.40E+00    1.2 61380.76570032       707.3876524875  2.70E+01
    56 P_Mix/Diag. 0.40E+00    1.1 25132.56704917       870.5912011514  1.63E+02
    57 P_Mix/Diag. 0.40E+00    1.1 40741.73879590       452.8361069861 -4.18E+02
    58 P_Mix/Diag. 0.40E+00    1.1 21949.94919044      1054.4359989639  6.02E+02
    59 P_Mix/Diag. 0.40E+00    1.1 40205.22114307       640.6594425234 -4.14E+02
    60 P_Mix/Diag. 0.40E+00    1.1 47579.63347161      1059.8658876792  4.19E+02
    61 P_Mix/Diag. 0.40E+00    1.3 38833.94569228       559.9895373328 -5.00E+02
    62 P_Mix/Diag. 0.40E+00    1.2 91592.77966220       632.6883191238  7.27E+01
    63 P_Mix/Diag. 0.40E+00    1.6 55458.09138114      1397.0658344918  7.64E+02
    64 P_Mix/Diag. 0.40E+00    1.1 53562.27803039      1241.2438340710 -1.56E+02
    65 P_Mix/Diag. 0.40E+00    1.6 89563.01991077      1266.6415971966  2.54E+01
    66 P_Mix/Diag. 0.40E+00    1.4 55124.46530912      1302.3382205382  3.57E+01
    67 P_Mix/Diag. 0.40E+00    1.1     1.3553E+05      1216.0556140149 -8.63E+01
    68 P_Mix/Diag. 0.40E+00    1.1     1.0120E+05      1585.0004317149  3.69E+02
    69 P_Mix/Diag. 0.40E+00    1.2 61253.45037670      1487.8229129914 -9.72E+01
    70 P_Mix/Diag. 0.40E+00    1.1 97601.75270726      1448.0576587073 -3.98E+01
    71 P_Mix/Diag. 0.40E+00    1.1 64365.11018023      1380.3856696094 -6.77E+01
    72 P_Mix/Diag. 0.40E+00    1.1     1.6523E+05      1561.6993138125  1.81E+02
    73 P_Mix/Diag. 0.40E+00    1.1 69532.76354890      1795.0380655131  2.33E+02
    74 P_Mix/Diag. 0.40E+00    1.1     1.2294E+05      1574.2646178008 -2.21E+02
    75 P_Mix/Diag. 0.40E+00    1.1     1.5694E+05      1636.7037514599  6.24E+01
    76 P_Mix/Diag. 0.40E+00    1.1 88060.13347818      1410.6697024454 -2.26E+02
    77 P_Mix/Diag. 0.40E+00    1.1     1.1171E+05      1469.8233675323  5.92E+01
    78 P_Mix/Diag. 0.40E+00    1.3     1.5908E+05      1688.7247896162  2.19E+02
    79 P_Mix/Diag. 0.40E+00    1.4     1.0421E+05      1566.2220637289 -1.23E+02
    80 P_Mix/Diag. 0.40E+00    1.6     1.2129E+05      1765.6160887632  1.99E+02
    81 P_Mix/Diag. 0.40E+00    1.1 55916.62101117      1776.2826430865  1.07E+01
    82 P_Mix/Diag. 0.40E+00    1.6     1.5219E+05      1666.4232565936 -1.10E+02
    83 P_Mix/Diag. 0.40E+00    1.1     1.6332E+05      1699.5802219734  3.32E+01
    84 P_Mix/Diag. 0.40E+00    1.1     1.3956E+05      1707.4062701193  7.83E+00
    85 P_Mix/Diag. 0.40E+00    1.1     1.6817E+05      1787.9759253438  8.06E+01
    86 P_Mix/Diag. 0.40E+00    1.1 71779.06569196      1797.8380795898  9.86E+00
    87 P_Mix/Diag. 0.40E+00    1.1     1.3484E+05      1561.3091284803 -2.37E+02
    88 P_Mix/Diag. 0.40E+00    1.1     1.9300E+05      1637.7305520090  7.64E+01
    89 P_Mix/Diag. 0.40E+00    1.1 83323.25876055      1842.7854730846  2.05E+02
    90 P_Mix/Diag. 0.40E+00    1.5     1.2669E+05      1747.6957276357 -9.51E+01
    91 P_Mix/Diag. 0.40E+00    1.6 56181.10794292      1746.8252507992 -8.70E-01
    92 P_Mix/Diag. 0.40E+00    1.7     1.2818E+05      1530.9668253768 -2.16E+02
    93 P_Mix/Diag. 0.40E+00    1.7     1.6351E+05      1613.4431614558  8.25E+01
    94 P_Mix/Diag. 0.40E+00    1.6     1.5439E+05      1683.6400342720  7.02E+01
    95 P_Mix/Diag. 0.40E+00    1.6     1.7510E+05      1775.2692488932  9.16E+01
    96 P_Mix/Diag. 0.40E+00    1.6 73947.20482374      1798.8798577567  2.36E+01
    97 P_Mix/Diag. 0.40E+00    1.6     1.4574E+05      1561.0059552984 -2.38E+02
    98 P_Mix/Diag. 0.40E+00    1.6     1.9707E+05      1662.1037076325  1.01E+02
    99 P_Mix/Diag. 0.40E+00    1.2 83836.12076530      1785.5760076834  1.23E+02
   100 P_Mix/Diag. 0.40E+00    1.1     1.0873E+05      1750.1748414244 -3.54E+01
   101 P_Mix/Diag. 0.40E+00    1.4 60717.66542758      1610.2420233515 -1.40E+02
   102 P_Mix/Diag. 0.40E+00    1.1     1.3066E+05      1513.7141113500 -9.65E+01
   103 P_Mix/Diag. 0.40E+00    1.1     1.7869E+05      1635.0010226488  1.21E+02
   104 P_Mix/Diag. 0.40E+00    1.1     1.2799E+05      1702.5302610880  6.75E+01
   105 P_Mix/Diag. 0.40E+00    1.4     1.7535E+05      1747.1143188417  4.46E+01
   106 P_Mix/Diag. 0.40E+00    1.1 79636.38933635      1772.6835258075  2.56E+01
   107 P_Mix/Diag. 0.40E+00    1.1     1.4034E+05      1609.5486934018 -1.63E+02
   108 P_Mix/Diag. 0.40E+00    1.1     1.8933E+05      1648.2774059813  3.87E+01
   109 P_Mix/Diag. 0.40E+00    1.1 80399.04766859      1772.4543597068  1.24E+02
   110 P_Mix/Diag. 0.40E+00    1.1     1.0952E+05      1781.8840675040  9.43E+00
^X   111 P_Mix/Diag. 0.40E+00    1.6 93207.27724246      1682.5056661023 -9.94E+01
   112 P_Mix/Diag. 0.40E+00    1.6     1.2575E+05      1641.5557959810 -4.09E+01
^C[mpiexec@4517a862747c] Sending Ctrl-C to processes as requested
[mpiexec@4517a862747c] Press Ctrl-C again to force abort

===================================================================================
=   BAD TERMINATION OF ONE OF YOUR APPLICATION PROCESSES
=   PID 538 RUNNING AT 4517a862747c
=   EXIT CODE: 9
=   CLEANING UP REMAINING PROCESSES
=   YOU CAN IGNORE THE BELOW CLEANUP MESSAGES
===================================================================================
YOUR APPLICATION TERMINATED WITH THE EXIT STRING: Killed (signal 9)
This typically refers to a problem with your application.
Please see the FAQ page for debugging suggestions
