 DBCSR| CPU Multiplication driver                                           XSMM (U)
 DBCSR| Multrec recursion limit                                              512 (U)
 DBCSR| Multiplication stack size                                           1000 (D)
 DBCSR| Maximum elements for images                                    UNLIMITED (U)
 DBCSR| Multiplicative factor virtual images                                   1 (U)
 DBCSR| Use multiplication densification                                       T (D)
 DBCSR| Multiplication size stacks                                             3 (U)
 DBCSR| Use memory pool for CPU allocation                                     F (U)
 DBCSR| Number of 3D layers                                               SINGLE (U)
 DBCSR| Use MPI memory allocation                                              F (U)
 DBCSR| Use RMA algorithm                                                      F (U)
 DBCSR| Use Communication thread                                               T (U)
 DBCSR| Communication thread load                                             83 (D)
 DBCSR| MPI: My process id                                                     0
 DBCSR| MPI: Number of processes                                              88
 DBCSR| OMP: Current number of threads                                         2
 DBCSR| OMP: Max number of threads                                             2
 DBCSR| Split modifier for TAS multiplication algorithm                  1.0E+00 (U)


  **** **** ******  **  PROGRAM STARTED AT               2023-12-23 16:42:50.877
 ***** ** ***  *** **   PROGRAM STARTED ON                          d8911a8d868a
 **    ****   ******    PROGRAM STARTED BY                             <unknown>
 ***** **    ** ** **   PROGRAM PROCESS ID                                   538
  **** **  *******  **  PROGRAM STARTED IN                                  /mnt

 CP2K| version string:                                       CP2K version 2023.2
 CP2K| source code revision number:                                  git:65cca6c
 CP2K| cp2kflags: omp libint fftw3 libxc pexsi elpa parallel scalapack cosma qui
 CP2K|            p xsmm plumed2 spglib sirius libvori libbqb libtorch libvdwxc
 CP2K| is freely available from                            https://www.cp2k.org/
 CP2K| Program compiled at                          Wed Oct 18 11:40:41 UTC 2023
 CP2K| Program compiled on                                          633bb7bf566f
 CP2K| Program compiled for                                                local
 CP2K| Data directory path                                        /opt/cp2k/data
 CP2K| Input file name                                             4amp33_pbe.in

 GLOBAL| Force Environment number                                              1
 GLOBAL| Basis set file name                                      GTH_BASIS_SETS
 GLOBAL| Potential file name                                           POTENTIAL
 GLOBAL| MM Potential file name                                     MM_POTENTIAL
 GLOBAL| Coordinate file name                                      __STD_INPUT__
 GLOBAL| Method name                                                        CP2K
 GLOBAL| Project name                                                 4AMP34_pbe
 GLOBAL| Run type                                                         ENERGY
 GLOBAL| FFT library                                                       FFTW3
 GLOBAL| Diagonalization library                                       ScaLAPACK
 GLOBAL| DGEMM library                                                      BLAS
 GLOBAL| Orthonormality check for eigenvectors                          DISABLED
 GLOBAL| Matrix multiplication library                                     COSMA
 GLOBAL| All-to-all communication in single precision                          F
 GLOBAL| FFTs using library dependent lengths                                  F
 GLOBAL| Grid backend                                                       AUTO
 GLOBAL| Global print level                                                  LOW
 GLOBAL| MPI I/O enabled                                                       T
 GLOBAL| Total number of message passing processes                            88
 GLOBAL| Number of threads for this process                                    2
 GLOBAL| This output is from process                                           0
 GLOBAL| Stack size for threads created by OpenMP (OMP_STACKSIZE)            16M
 GLOBAL| CPU model name                         AMD EPYC 9V33X 96-Core Processor
 GLOBAL| CPUID                                                              1003
 GLOBAL| Compiled for CPUID                                                    0

 *** HINT in environment.F:904 :: The compiler target flags (generic) used ***
 *** to build this binary cannot exploit all extensions of this CPU model  ***
 *** (x86_avx512). Consider compiler target flags as part of FCFLAGS and   ***
 *** CFLAGS (ARCH file).                                                   ***


 MEMORY| system memory details [Kb]
 MEMORY|                        rank 0           min           max       average
 MEMORY| MemTotal           1444892832    1444892832    1444892832    1444892832
 MEMORY| MemFree            1425857568    1425857568    1425857568    1425857568
 MEMORY| Buffers                 30552         30552         30552         30552
 MEMORY| Cached                 776740        776740        776740        776740
 MEMORY| Slab                  1010400       1010400       1010432       1010402
 MEMORY| SReclaimable           118856        118856        118856        118856
 MEMORY| MemLikelyFree      1426783716    1426783716    1426783716    1426783716


 GENERATE|  Preliminary Number of Bonds generated:                             0
 GENERATE|  Achieved consistency in connectivity generation.

 *******************************************************************************
 *******************************************************************************
 **                                                                           **
 **     #####                         ##              ##                      **
 **    ##   ##            ##          ##              ##                      **
 **   ##     ##                       ##            ######                    **
 **   ##     ##  ##   ##  ##   #####  ##  ##   ####   ##    #####    #####    **
 **   ##     ##  ##   ##  ##  ##      ## ##   ##      ##   ##   ##  ##   ##   **
 **   ##  ## ##  ##   ##  ##  ##      ####     ###    ##   ######   ######    **
 **    ##  ###   ##   ##  ##  ##      ## ##      ##   ##   ##       ##        **
 **     #######   #####   ##   #####  ##  ##  ####    ##    #####   ##        **
 **           ##                                                    ##        **
 **                                                                           **
 **                                                ... make the atoms dance   **
 **                                                                           **
 **            Copyright (C) by CP2K developers group (2000-2023)             **
 **                      J. Chem. Phys. 152, 194103 (2020)                    **
 **                                                                           **
 *******************************************************************************


 TOTAL NUMBERS AND MAXIMUM NUMBERS

  Total number of            - Atomic kinds:                                   5
                             - Atoms:                                        106
                             - Shell sets:                                   212
                             - Shells:                                       652
                             - Primitive Cartesian functions:                636
                             - Cartesian basis functions:                   1548
                             - Spherical basis functions:                   1472

  Maximum angular momentum of- Orbital basis functions:                        2
                             - Local part of the GTH pseudopotential:          2
                             - Non-local part of the GTH pseudopotential:      0


 SCF PARAMETERS         Density guess:                                    ATOMIC
                        --------------------------------------------------------
                        max_scf:                                             150
                        max_scf_history:                                       0
                        max_diis:                                              4
                        --------------------------------------------------------
                        eps_scf:                                        1.00E-05
                        eps_scf_history:                                0.00E+00
                        eps_diis:                                       1.00E-01
                        eps_eigval:                                     1.00E-05
                        --------------------------------------------------------
                        level_shift [a.u.]:                             0.000000
                        --------------------------------------------------------
                        Outer loop SCF in use
                        No variables optimised in outer loop
                        eps_scf                                         1.00E-05
                        max_scf                                                3
                        No outer loop optimization
                        step_size                                       5.00E-01

 Number of electrons:                                                        412
 Number of occupied orbitals:                                                206
 Number of molecular orbitals:                                               206

 Number of orbital functions:                                               1472
 Number of independent orbital functions:                                   1472

 Extrapolation method: initial_guess


 SCF WAVEFUNCTION OPTIMIZATION

  ----------------------------------- OT ---------------------------------------
  Minimizer      : DIIS                : direct inversion
                                         in the iterative subspace
                                         using   7 DIIS vectors
                                         safer DIIS on
  Preconditioner : FULL_ALL            : diagonalization, state selective
  Precond_solver : DEFAULT
  stepsize       :    0.15000000                  energy_gap     :    0.00100000
  eps_taylor     :   0.10000E-15                  max_taylor     :             4
  ----------------------------------- OT ---------------------------------------

  Step     Update method      Time    Convergence         Total energy    Change
  ------------------------------------------------------------------------------
     1 OT DIIS     0.15E+00    1.0     0.07667694      -837.2256287370 -8.37E+02
     2 OT DIIS     0.15E+00    1.3     0.16087090      -796.5930453814  4.06E+01
     3 OT DIIS     0.15E+00    1.6     0.02454526      -866.9036511630 -7.03E+01
     4 OT DIIS     0.15E+00    1.5     0.04121578      -874.0969193376 -7.19E+00
     5 OT DIIS     0.15E+00    0.3     0.02255581      -881.2738762335 -7.18E+00
     6 OT DIIS     0.15E+00    0.3     0.02192358      -884.5163065422 -3.24E+00
     7 OT DIIS     0.15E+00    0.3     0.01805831      -887.3464934035 -2.83E+00
     8 OT DIIS     0.15E+00    0.3     0.01297188      -889.8620768973 -2.52E+00
     9 OT DIIS     0.15E+00    0.3     0.01185924      -892.2812330575 -2.42E+00
    10 OT DIIS     0.15E+00    0.3     0.00665902      -893.4559622423 -1.17E+00
    11 OT DIIS     0.15E+00    0.4     0.00625321      -894.2522572940 -7.96E-01
    12 OT DIIS     0.15E+00    0.3     0.00487262      -894.7381610275 -4.86E-01
    13 OT DIIS     0.15E+00    0.3     0.00379858      -895.2257412227 -4.88E-01
    14 OT DIIS     0.15E+00    0.3     0.00396785      -895.5212479030 -2.96E-01
    15 OT DIIS     0.15E+00    0.4     0.00334636      -895.7982527342 -2.77E-01
    16 OT DIIS     0.15E+00    0.3     0.00258240      -896.0702228596 -2.72E-01
    17 OT DIIS     0.15E+00    0.3     0.00229068      -896.3652971811 -2.95E-01
    18 OT DIIS     0.15E+00    1.1     0.00225053      -896.4779017926 -1.13E-01
    19 OT DIIS     0.15E+00    1.0     0.00191159      -896.7080476399 -2.30E-01
    20 OT DIIS     0.15E+00    0.3     0.00176110      -896.9135429796 -2.05E-01
    21 OT DIIS     0.15E+00    0.3     0.00171862      -897.0290828019 -1.16E-01
    22 OT DIIS     0.15E+00    0.3     0.00162663      -897.1256675218 -9.66E-02
    23 OT DIIS     0.15E+00    0.3     0.00147940      -897.2314276378 -1.06E-01
    24 OT DIIS     0.15E+00    0.3     0.00137706      -897.3539487887 -1.23E-01
    25 OT DIIS     0.15E+00    0.3     0.00137908      -897.4990232528 -1.45E-01
    26 OT DIIS     0.15E+00    0.3     0.00127446      -897.5431610580 -4.41E-02
    27 OT DIIS     0.15E+00    0.5     0.00112231      -897.6353761787 -9.22E-02
    28 OT DIIS     0.15E+00    0.3     0.00111038      -897.7052955431 -6.99E-02
    29 OT DIIS     0.15E+00    0.3     0.00110335      -897.7849907022 -7.97E-02
    30 OT DIIS     0.15E+00    0.3     0.00101465      -897.8519448174 -6.70E-02
    31 OT DIIS     0.15E+00    0.4     0.00096551      -897.9074569467 -5.55E-02
    32 OT DIIS     0.15E+00    0.3     0.00091596      -897.9718299795 -6.44E-02
    33 OT DIIS     0.15E+00    0.3     0.00089459      -898.0366347656 -6.48E-02
    34 OT DIIS     0.15E+00    0.3     0.00093093      -898.0782938875 -4.17E-02
    35 OT DIIS     0.15E+00    0.3     0.00087142      -898.1552269801 -7.69E-02
    36 OT DIIS     0.15E+00    0.3     0.00081526      -898.2036969086 -4.85E-02
    37 OT DIIS     0.15E+00    0.3     0.00078625      -898.2451258953 -4.14E-02
    38 OT DIIS     0.15E+00    0.3     0.00076010      -898.2791209286 -3.40E-02
    39 OT DIIS     0.15E+00    0.3     0.00077220      -898.3267131837 -4.76E-02
    40 OT DIIS     0.15E+00    0.3     0.00071129      -898.3878558318 -6.11E-02
    41 OT DIIS     0.15E+00    0.3     0.00072797      -898.4448530956 -5.70E-02
    42 OT DIIS     0.15E+00    0.3     0.00068786      -898.4662756171 -2.14E-02
    43 OT DIIS     0.15E+00    0.3     0.00059245      -898.4815647847 -1.53E-02
    44 OT DIIS     0.15E+00    0.3     0.00062189      -898.5266553734 -4.51E-02
    45 OT DIIS     0.15E+00    0.3     0.00063489      -898.5732105084 -4.66E-02
    46 OT DIIS     0.15E+00    0.3     0.00060475      -898.6143165073 -4.11E-02
    47 OT DIIS     0.15E+00    0.3     0.00054347      -898.6345100370 -2.02E-02
    48 OT DIIS     0.15E+00    0.3     0.00051277      -898.6501062485 -1.56E-02
    49 OT DIIS     0.15E+00    0.3     0.00056666      -898.6707186014 -2.06E-02
    50 OT DIIS     0.15E+00    0.3     0.00054434      -898.6912794046 -2.06E-02
    51 OT DIIS     0.15E+00    0.5     0.00046604      -898.7195133909 -2.82E-02
    52 OT DIIS     0.15E+00    0.5     0.00045639      -898.7410803240 -2.16E-02
    53 OT DIIS     0.15E+00    0.3     0.00043275      -898.7752415655 -3.42E-02
    54 OT DIIS     0.15E+00    0.3     0.00043109      -898.7848613097 -9.62E-03
    55 OT DIIS     0.15E+00    0.3     0.00050834      -898.7829443721  1.92E-03
    56 OT DIIS     0.15E+00    0.3     0.00039863      -898.8154275965 -3.25E-02
    57 OT DIIS     0.15E+00    0.3     0.00047282      -898.8338839226 -1.85E-02
    58 OT DIIS     0.15E+00    0.3     0.00041499      -898.8519862923 -1.81E-02
    59 OT DIIS     0.15E+00    0.3     0.00037264      -898.8683374746 -1.64E-02
    60 OT SD       0.15E+00    0.3     0.00036474      -898.8866665132 -1.83E-02
    61 OT DIIS     0.15E+00    0.3     0.00056020      -898.8908237840 -4.16E-03
    62 OT DIIS     0.15E+00    0.3     0.00035501      -898.8941877774 -3.36E-03
    63 OT DIIS     0.15E+00    0.3     0.00036084      -898.9120454892 -1.79E-02
    64 OT DIIS     0.15E+00    0.3     0.00034428      -898.9342200132 -2.22E-02
    65 OT DIIS     0.15E+00    0.3     0.00031980      -898.9568183858 -2.26E-02
    66 OT DIIS     0.15E+00    0.3     0.00032186      -898.9693002994 -1.25E-02
    67 OT DIIS     0.15E+00    0.3     0.00030946      -898.9763111179 -7.01E-03
    68 OT DIIS     0.15E+00    0.3     0.00031747      -898.9752576809  1.05E-03
    69 OT DIIS     0.15E+00    0.3     0.00029642      -898.9903969967 -1.51E-02
    70 OT DIIS     0.15E+00    0.3     0.00030423      -899.0001145068 -9.72E-03
    71 OT DIIS     0.15E+00    0.3     0.00025530      -899.0057839494 -5.67E-03
    72 OT DIIS     0.15E+00    0.3     0.00025747      -899.0206704191 -1.49E-02
    73 OT SD       0.15E+00    0.3     0.00026879      -899.0217900934 -1.12E-03
    74 OT DIIS     0.15E+00    0.3     0.00054367      -899.0230409408 -1.25E-03
    75 OT DIIS     0.15E+00    0.3     0.00023551      -899.0385839456 -1.55E-02
    76 OT DIIS     0.15E+00    0.3     0.00023713      -899.0493262236 -1.07E-02
    77 OT DIIS     0.15E+00    0.3     0.00022576      -899.0552598874 -5.93E-03
    78 OT DIIS     0.15E+00    0.3     0.00023282      -899.0596058953 -4.35E-03
    79 OT SD       0.15E+00    0.3     0.00021885      -899.0663147749 -6.71E-03
    80 OT DIIS     0.15E+00    0.3     0.00040309      -899.0675285268 -1.21E-03
    81 OT DIIS     0.15E+00    0.3     0.00020251      -899.0801217996 -1.26E-02
    82 OT DIIS     0.15E+00    0.3     0.00020300      -899.0869382206 -6.82E-03
    83 OT DIIS     0.15E+00    0.3     0.00019205      -899.0923924427 -5.45E-03
    84 OT DIIS     0.15E+00    0.3     0.00019189      -899.0928248370 -4.32E-04
    85 OT DIIS     0.15E+00    0.3     0.00021187      -899.0953198925 -2.50E-03
    86 OT DIIS     0.15E+00    0.3     0.00017491      -899.1027883384 -7.47E-03
    87 OT DIIS     0.15E+00    0.3     0.00018453      -899.1116074734 -8.82E-03
    88 OT DIIS     0.15E+00    0.6     0.00017217      -899.1133339619 -1.73E-03
    89 OT DIIS     0.15E+00    0.8     0.00017215      -899.1205493697 -7.22E-03
    90 OT SD       0.15E+00    0.3     0.00016710      -899.1264666659 -5.92E-03
    91 OT DIIS     0.15E+00    0.3     0.00020961      -899.1275230802 -1.06E-03
    92 OT DIIS     0.15E+00    0.3     0.00016788      -899.1284970733 -9.74E-04
    93 OT DIIS     0.15E+00    0.5     0.00016821      -899.1343396396 -5.84E-03
    94 OT DIIS     0.15E+00    0.3     0.00015687      -899.1384593840 -4.12E-03
    95 OT DIIS     0.15E+00    0.3     0.00015641      -899.1438267449 -5.37E-03
    96 OT DIIS     0.15E+00    0.3     0.00015616      -899.1505872150 -6.76E-03
    97 OT DIIS     0.15E+00    0.3     0.00014971      -899.1530265121 -2.44E-03
    98 OT DIIS     0.15E+00    0.3     0.00014416      -899.1539034106 -8.77E-04
    99 OT DIIS     0.15E+00    0.3     0.00014446      -899.1581140491 -4.21E-03
   100 OT DIIS     0.15E+00    0.3     0.00014530      -899.1604125652 -2.30E-03
   101 OT DIIS     0.15E+00    0.3     0.00014034      -899.1628014335 -2.39E-03
   102 OT DIIS     0.15E+00    0.3     0.00013641      -899.1680534976 -5.25E-03
   103 OT DIIS     0.15E+00    0.3     0.00013616      -899.1699755148 -1.92E-03
   104 OT DIIS     0.15E+00    0.3     0.00013948      -899.1724640299 -2.49E-03
   105 OT DIIS     0.15E+00    0.3     0.00013553      -899.1733219736 -8.58E-04
   106 OT DIIS     0.15E+00    0.3     0.00013975      -899.1764207113 -3.10E-03
   107 OT DIIS     0.15E+00    0.3     0.00013317      -899.1784816650 -2.06E-03
   108 OT DIIS     0.15E+00    0.3     0.00013152      -899.1839498953 -5.47E-03
   109 OT SD       0.15E+00    0.3     0.00012933      -899.1865327696 -2.58E-03
   110 OT DIIS     0.15E+00    0.3     0.00013098      -899.1872667703 -7.34E-04
   111 OT DIIS     0.15E+00    0.3     0.00012971      -899.1878182843 -5.52E-04
   112 OT DIIS     0.15E+00    0.3     0.00012600      -899.1928594761 -5.04E-03
   113 OT DIIS     0.15E+00    0.3     0.00013147      -899.2002623477 -7.40E-03
   114 OT DIIS     0.15E+00    0.3     0.00013273      -899.2059785598 -5.72E-03
   115 OT SD       0.15E+00    0.3     0.00013614      -899.2092139337 -3.24E-03
   116 OT SD       0.15E+00    0.3     0.00015575      -899.2098952871 -6.81E-04
   117 OT SD       0.15E+00    0.3     0.00038740      -899.2099416059 -4.63E-05
   118 OT DIIS     0.15E+00    0.3     0.00142741      -899.2017850691  8.16E-03
   119 OT DIIS     0.15E+00    0.3     0.00012016      -899.2133016797 -1.15E-02
   120 OT DIIS     0.15E+00    0.3     0.00012012      -899.2164384634 -3.14E-03
   121 OT DIIS     0.15E+00    0.3     0.00012153      -899.2184941495 -2.06E-03
   122 OT DIIS     0.15E+00    0.3     0.00012077      -899.2229358688 -4.44E-03
   123 OT DIIS     0.15E+00    0.3     0.00011797      -899.2239929814 -1.06E-03
   124 OT SD       0.15E+00    0.3     0.00011762      -899.2286550339 -4.66E-03
   125 OT SD       0.15E+00    0.3     0.00013234      -899.2292204958 -5.65E-04
   126 OT DIIS     0.15E+00    0.3     0.00029251      -899.2294673131 -2.47E-04
   127 OT DIIS     0.15E+00    0.3     0.00011545      -899.2347272910 -5.26E-03
   128 OT DIIS     0.15E+00    0.3     0.00011787      -899.2369937479 -2.27E-03
   129 OT DIIS     0.15E+00    0.3     0.00011852      -899.2449650818 -7.97E-03
   130 OT DIIS     0.15E+00    0.3     0.00012123      -899.2479583352 -2.99E-03
   131 OT SD       0.15E+00    0.3     0.00012639      -899.2489453815 -9.87E-04
   132 OT SD       0.15E+00    0.3     0.00019241      -899.2493974739 -4.52E-04
   133 OT DIIS     0.15E+00    0.3     0.00059818      -899.2483840713  1.01E-03
   134 OT DIIS     0.15E+00    0.3     0.00011500      -899.2517951472 -3.41E-03
   135 OT DIIS     0.15E+00    0.3     0.00010584      -899.2520942629 -2.99E-04
   136 OT DIIS     0.15E+00    0.3     0.00010589      -899.2567535285 -4.66E-03
   137 OT DIIS     0.15E+00    0.3     0.00011388      -899.2605070644 -3.75E-03
   138 OT SD       0.15E+00    0.3     0.00012199      -899.2667363385 -6.23E-03
   139 OT SD       0.15E+00    0.3     0.00015880      -899.2671981781 -4.62E-04
   140 OT DIIS     0.15E+00    0.3     0.00046964      -899.2667227987  4.75E-04
   141 OT DIIS     0.15E+00    0.3     0.00010489      -899.2680370228 -1.31E-03
   142 OT DIIS     0.15E+00    0.3     0.00010579      -899.2738470688 -5.81E-03
   143 OT DIIS     0.15E+00    0.3     0.00012228      -899.2759323135 -2.09E-03
   144 OT DIIS     0.15E+00    0.3     0.00010014      -899.2789330142 -3.00E-03
   145 OT SD       0.15E+00    0.3     0.00012842      -899.2848802614 -5.95E-03
   146 OT SD       0.15E+00    0.3     0.00014173      -899.2853721171 -4.92E-04
   147 OT SD       0.15E+00    0.3     0.00038680      -899.2851359113  2.36E-04
   148 OT DIIS     0.15E+00    0.3     0.00143739      -899.2765554910  8.58E-03
   149 OT DIIS     0.15E+00    0.3     0.00009264      -899.2866619467 -1.01E-02
   150 OT SD       0.15E+00    0.3     0.00010075      -899.2883995850 -1.74E-03

  Leaving inner SCF loop after reaching   150 steps.


  Electronic density on regular grids:       -411.9999998514        0.0000001486
  Core density on regular grids:              411.9999999795       -0.0000000205
  Total charge density on r-space grids:        0.0000001281
  Total charge density g-space grids:           0.0000001281

  Overlap energy of the core charge distribution:               0.01304324373266
  Self energy of the core charge distribution:              -2358.64663642500864
  Core Hamiltonian energy:                                    765.13329372849830
  Hartree energy:                                             924.83620583645711
  Exchange-correlation energy:                               -230.62430596867028

  Total energy:                                              -899.28839958499088

  outer SCF iter =    1 RMS gradient =   0.10E-03 energy =       -899.2883995850

  ----------------------------------- OT ---------------------------------------
  Minimizer      : DIIS                : direct inversion
                                         in the iterative subspace
                                         using   7 DIIS vectors
                                         safer DIIS on
  Preconditioner : FULL_ALL            : diagonalization, state selective
  Precond_solver : DEFAULT
  stepsize       :    0.15000000                  energy_gap     :    0.00100000
  eps_taylor     :   0.10000E-15                  max_taylor     :             4
  ----------------------------------- OT ---------------------------------------

  Step     Update method      Time    Convergence         Total energy    Change
  ------------------------------------------------------------------------------
     1 OT DIIS     0.15E+00    1.0     0.00207312      -899.2886110994 -2.12E-04
     2 OT DIIS     0.15E+00    0.3     0.01755137      -899.1095465299  1.79E-01
     3 OT DIIS     0.15E+00    0.3     0.00418580      -899.3471226001 -2.38E-01
     4 OT DIIS     0.15E+00    0.3     0.00690259      -899.3146900459  3.24E-02
     5 OT DIIS     0.15E+00    0.3     0.00958637      -899.3120874070  2.60E-03
     6 OT DIIS     0.15E+00    0.3     0.01002812      -899.3147200371 -2.63E-03
     7 OT DIIS     0.15E+00    0.3     0.00208252      -899.3845053327 -6.98E-02
     8 OT DIIS     0.15E+00    0.3     0.00170094      -899.3891408328 -4.64E-03
     9 OT DIIS     0.15E+00    0.3     0.00153941      -899.3966614806 -7.52E-03
    10 OT DIIS     0.15E+00    0.3     0.00090518      -899.3999780361 -3.32E-03
    11 OT DIIS     0.15E+00    0.3     0.00109438      -899.4000521900 -7.42E-05
    12 OT DIIS     0.15E+00    0.3     0.00096133      -899.4029188178 -2.87E-03
    13 OT DIIS     0.15E+00    0.3     0.00537306      -899.3833046916  1.96E-02
    14 OT DIIS     0.15E+00    0.3     0.00091428      -899.4053841778 -2.21E-02
    15 OT DIIS     0.15E+00    0.3     0.00037488      -899.4068909599 -1.51E-03
    16 OT DIIS     0.15E+00    0.3     0.00045209      -899.4073285056 -4.38E-04
    17 OT DIIS     0.15E+00    0.3     0.00048454      -899.4092465424 -1.92E-03
    18 OT DIIS     0.15E+00    0.3     0.00037571      -899.4088499624  3.97E-04
    19 OT DIIS     0.15E+00    0.3     0.00054597      -899.4097650384 -9.15E-04
    20 OT DIIS     0.15E+00    0.3     0.00067513      -899.4105150831 -7.50E-04
    21 OT DIIS     0.15E+00    0.3     0.00206838      -899.4072213713  3.29E-03
    22 OT DIIS     0.15E+00    0.3     0.00144710      -899.4087102992 -1.49E-03
    23 OT DIIS     0.15E+00    0.3     0.00156536      -899.4108726864 -2.16E-03
    24 OT DIIS     0.15E+00    0.3     0.00124190      -899.4111972202 -3.25E-04
    25 OT DIIS     0.15E+00    0.3     0.00065114      -899.4128018090 -1.60E-03
    26 OT DIIS     0.15E+00    0.3     0.00044690      -899.4142006482 -1.40E-03
    27 OT DIIS     0.15E+00    0.3     0.00032177      -899.4153915572 -1.19E-03
    28 OT DIIS     0.15E+00    0.3     0.00039322      -899.4158218962 -4.30E-04
    29 OT DIIS     0.15E+00    0.3     0.00128338      -899.4148822890  9.40E-04
    30 OT DIIS     0.15E+00    0.3     0.00095415      -899.4149441719 -6.19E-05
    31 OT DIIS     0.15E+00    0.3     0.00055286      -899.4165149847 -1.57E-03
    32 OT DIIS     0.15E+00    0.3     0.00122063      -899.4153667023  1.15E-03
    33 OT DIIS     0.15E+00    0.3     0.00055779      -899.4165963206 -1.23E-03
    34 OT DIIS     0.15E+00    0.3     0.00031128      -899.4168557172 -2.59E-04
    35 OT DIIS     0.15E+00    0.3     0.00027935      -899.4170280183 -1.72E-04
    36 OT DIIS     0.15E+00    0.3     0.00012231      -899.4172430013 -2.15E-04
    37 OT DIIS     0.15E+00    0.3     0.00020791      -899.4173183535 -7.54E-05
    38 OT DIIS     0.15E+00    0.3     0.00056523      -899.4169053587  4.13E-04
    39 OT DIIS     0.15E+00    0.3     0.00011254      -899.4173645903 -4.59E-04
    40 OT DIIS     0.15E+00    0.3     0.00035802      -899.4173066168  5.80E-05
    41 OT DIIS     0.15E+00    0.3     0.00015068      -899.4174047408 -9.81E-05
    42 OT DIIS     0.15E+00    0.3     0.00017029      -899.4173695717  3.52E-05
    43 OT DIIS     0.15E+00    0.3     0.00013407      -899.4174067736 -3.72E-05
    44 OT DIIS     0.15E+00    0.3     0.00004570      -899.4174455977 -3.88E-05
    45 OT DIIS     0.15E+00    0.3     0.00004203      -899.4174581312 -1.25E-05
    46 OT DIIS     0.15E+00    0.3     0.00011731      -899.4174494268  8.70E-06
    47 OT DIIS     0.15E+00    0.3     0.00003436      -899.4174653121 -1.59E-05
    48 OT DIIS     0.15E+00    0.3     0.00006686      -899.4174670577 -1.75E-06
    49 OT DIIS     0.15E+00    0.3     0.00011670      -899.4174646598  2.40E-06
    50 OT DIIS     0.15E+00    0.3     0.00003437      -899.4174749406 -1.03E-05
    51 OT DIIS     0.15E+00    0.3     0.00004639      -899.4174733443  1.60E-06
    52 OT DIIS     0.15E+00    0.3     0.00003990      -899.4174751428 -1.80E-06
    53 OT DIIS     0.15E+00    0.3     0.00001476      -899.4174797104 -4.57E-06
    54 OT DIIS     0.15E+00    0.3     0.00003363      -899.4174801514 -4.41E-07
    55 OT DIIS     0.15E+00    0.3     0.00001854      -899.4174804921 -3.41E-07
    56 OT DIIS     0.15E+00    0.3     0.00002221      -899.4174814810 -9.89E-07
    57 OT DIIS     0.15E+00    0.3     0.00004127      -899.4174811492  3.32E-07
    58 OT DIIS     0.15E+00    0.3     0.00001635      -899.4174823714 -1.22E-06
    59 OT DIIS     0.15E+00    0.3     0.00001453      -899.4174825514 -1.80E-07
    60 OT DIIS     0.15E+00    0.3     0.00002016      -899.4174822595  2.92E-07
    61 OT DIIS     0.15E+00    0.3     0.00000791      -899.4174832015 -9.42E-07

  *** SCF run converged in    61 steps ***


  Electronic density on regular grids:       -411.9999998587        0.0000001413
  Core density on regular grids:              411.9999999795       -0.0000000205
  Total charge density on r-space grids:        0.0000001208
  Total charge density g-space grids:           0.0000001208

  Overlap energy of the core charge distribution:               0.01304324373266
  Self energy of the core charge distribution:              -2358.64663642500864
  Core Hamiltonian energy:                                    765.03239866279318
  Hartree energy:                                             924.83458667206810
  Exchange-correlation energy:                               -230.65087535510969

  Total energy:                                              -899.41748320152442

  outer SCF iter =    2 RMS gradient =   0.79E-05 energy =       -899.4174832015
  outer SCF loop converged in   2 iterations or  211 steps


 *******************************************************************************
 **                                                                           **
 **         ######## #######   #######   ######## #######  ########           **
 **            ##    ##     ## ##     ## ##       ##   ##     ##              **
 **            ##    ##     ## ##     ## ######   #######     ##              **
 **            ##    ##     ## ##     ## ##       ##          ##              **
 **            ##    #######   #######   ##       ##          ##              **
 **                                                                           **
 *******************************************************************************
 KERNEL|                                                                    FULL
 FUNCTIONAL| PBE:
 FUNCTIONAL| J.P.Perdew, K.Burke, M.Ernzerhof, Phys. Rev. Letter, vol. 77, n 18,
 FUNCTIONAL|  pp. 3865-3868, (1996){spin unpolarized}
 KERNEL| Spin symmetry of excitations                                    Singlet
 TDDFPT| Number of states calculated                                         100
 TDDFPT| Number of Davidson iterations                                        50
 TDDFPT| Davidson iteration convergence                                0.367E-05
 TDDFPT| Max. number of Krylov space vectors                                5000
 TDDFPT| Molecular Orbitals:        Spin       AOs       Occ      Virt     Total
 TDDFPT|                               1      1472       206      1266      1472

 -------------------------------------------------------------------------------
 -                            TDDFPT Initial Guess                             -
 -------------------------------------------------------------------------------
          State         Occupied      ->      Virtual          Excitation
          number         orbital              orbital          energy (eV)
 -------------------------------------------------------------------------------
             1              206                  207              0.15920
             2              205                  207              0.23247
             3              204                  207              0.26425
             4              206                  208              0.30101
             5              205                  208              0.37428
             6              204                  208              0.40606
             7              206                  209              0.44149
             8              203                  207              0.46187
             9              205                  209              0.51477
            10              204                  209              0.54655
            11              203                  208              0.60368
            12              206                  210              0.61611
            13              205                  210              0.68939
            14              204                  210              0.72117
            15              203                  209              0.74416
            16              206                  211              0.91827
            17              203                  210              0.91879
            18              206                  212              0.92631
            19              205                  211              0.99155
            20              205                  212              0.99958
            21              204                  211              1.02333
            22              204                  212              1.03137
            23              206                  213              1.12920
            24              202                  207              1.14217
            25              206                  214              1.15833
            26              205                  213              1.20248
            27              203                  211              1.22094
            28              203                  212              1.22898
            29              205                  214              1.23161
            30              204                  213              1.23426
            31              204                  214              1.26339
            32              202                  208              1.28398
            33              206                  215              1.37228
            34              202                  209              1.42446
            35              203                  213              1.43187
            36              201                  207              1.44062
            37              205                  215              1.44556
            38              206                  216              1.44768
            39              206                  217              1.45592
            40              203                  214              1.46101
            41              204                  215              1.47734
            42              205                  216              1.52095
            43              205                  217              1.52920
            44              206                  218              1.54174
            45              204                  216              1.55273
            46              204                  217              1.56098
            47              201                  208              1.58243
            48              202                  210              1.59908
            49              205                  218              1.61502
            50              204                  218              1.64680
            51              203                  215              1.67495
            52              201                  209              1.72291
            53              203                  216              1.75035
            54              203                  217              1.75860
            55              206                  219              1.81969
            56              203                  218              1.84441
            57              205                  219              1.89296
            58              201                  210              1.89753
            59              202                  211              1.90124
            60              202                  212              1.90928
            61              206                  220              1.91437
            62              204                  219              1.92475
            63              205                  220              1.98764
            64              206                  221              2.00231
            65              204                  220              2.01943
            66              205                  221              2.07558
            67              200                  207              2.10276
            68              199                  207              2.10476
            69              204                  221              2.10736
            70              202                  213              2.11217
            71              203                  219              2.12236
            72              202                  214              2.14130
            73              201                  211              2.19969
            74              201                  212              2.20773
            75              206                  222              2.21686
            76              203                  220              2.21704
            77              198                  207              2.24105
            78              200                  208              2.24457
            79              199                  208              2.24657
            80              197                  207              2.25450
            81              205                  222              2.29013
            82              203                  221              2.30498
            83              204                  222              2.32192
            84              202                  215              2.35525
            85              198                  208              2.38286
            86              200                  209              2.38505
            87              199                  209              2.38705
            88              197                  208              2.39631
            89              201                  213              2.41062
            90              206                  223              2.41924
            91              202                  216              2.43065
            92              202                  217              2.43889
            93              201                  214              2.43976
            94              196                  207              2.44136
            95              195                  207              2.46280
            96              205                  223              2.49252
            97              203                  222              2.51953
            98              198                  209              2.52334
            99              204                  223              2.52430
           100              202                  218              2.52471

      Number of active states:                                     260796
 -------------------------------------------------------------------------------

 -------------------------------------------------------------------------------
 -                      TDDFPT WAVEFUNCTION OPTIMIZATION                       -
 -------------------------------------------------------------------------------

          Step            Time         Convergence           Conv. states
 -------------------------------------------------------------------------------


