 DBCSR| CPU Multiplication driver                                           XSMM (U)
 DBCSR| Multrec recursion limit                                              512 (U)
 DBCSR| Multiplication stack size                                           1000 (D)
 DBCSR| Maximum elements for images                                    UNLIMITED (U)
 DBCSR| Multiplicative factor virtual images                                   1 (U)
 DBCSR| Use multiplication densification                                       T (D)
 DBCSR| Multiplication size stacks                                             3 (U)
 DBCSR| Use memory pool for CPU allocation                                     F (U)
 DBCSR| Number of 3D layers                                               SINGLE (U)
 DBCSR| Use MPI memory allocation                                              F (U)
 DBCSR| Use RMA algorithm                                                      F (U)
 DBCSR| Use Communication thread                                               T (U)
 DBCSR| Communication thread load                                             83 (D)
 DBCSR| MPI: My process id                                                     0
 DBCSR| MPI: Number of processes                                              88
 DBCSR| OMP: Current number of threads                                         2
 DBCSR| OMP: Max number of threads                                             2
 DBCSR| Split modifier for TAS multiplication algorithm                  1.0E+00 (U)


  **** **** ******  **  PROGRAM STARTED AT               2023-12-23 16:42:50.877
 ***** ** ***  *** **   PROGRAM STARTED ON                          d8911a8d868a
 **    ****   ******    PROGRAM STARTED BY                             <unknown>
 ***** **    ** ** **   PROGRAM PROCESS ID                                   538
  **** **  *******  **  PROGRAM STARTED IN                                  /mnt

 CP2K| version string:                                       CP2K version 2023.2
 CP2K| source code revision number:                                  git:65cca6c
 CP2K| cp2kflags: omp libint fftw3 libxc pexsi elpa parallel scalapack cosma qui
 CP2K|            p xsmm plumed2 spglib sirius libvori libbqb libtorch libvdwxc
 CP2K| is freely available from                            https://www.cp2k.org/
 CP2K| Program compiled at                          Wed Oct 18 11:40:41 UTC 2023
 CP2K| Program compiled on                                          633bb7bf566f
 CP2K| Program compiled for                                                local
 CP2K| Data directory path                                        /opt/cp2k/data
 CP2K| Input file name                                             4amp33_pbe.in

 GLOBAL| Force Environment number                                              1
 GLOBAL| Basis set file name                                      GTH_BASIS_SETS
 GLOBAL| Potential file name                                           POTENTIAL
 GLOBAL| MM Potential file name                                     MM_POTENTIAL
 GLOBAL| Coordinate file name                                      __STD_INPUT__
 GLOBAL| Method name                                                        CP2K
 GLOBAL| Project name                                                 4AMP34_pbe
 GLOBAL| Run type                                                         ENERGY
 GLOBAL| FFT library                                                       FFTW3
 GLOBAL| Diagonalization library                                       ScaLAPACK
 GLOBAL| DGEMM library                                                      BLAS
 GLOBAL| Orthonormality check for eigenvectors                          DISABLED
 GLOBAL| Matrix multiplication library                                     COSMA
 GLOBAL| All-to-all communication in single precision                          F
 GLOBAL| FFTs using library dependent lengths                                  F
 GLOBAL| Grid backend                                                       AUTO
 GLOBAL| Global print level                                                  LOW
 GLOBAL| MPI I/O enabled                                                       T
 GLOBAL| Total number of message passing processes                            88
 GLOBAL| Number of threads for this process                                    2
 GLOBAL| This output is from process                                           0
 GLOBAL| Stack size for threads created by OpenMP (OMP_STACKSIZE)            16M
 GLOBAL| CPU model name                         AMD EPYC 9V33X 96-Core Processor
 GLOBAL| CPUID                                                              1003
 GLOBAL| Compiled for CPUID                                                    0

 *** HINT in environment.F:904 :: The compiler target flags (generic) used ***
 *** to build this binary cannot exploit all extensions of this CPU model  ***
 *** (x86_avx512). Consider compiler target flags as part of FCFLAGS and   ***
 *** CFLAGS (ARCH file).                                                   ***


 MEMORY| system memory details [Kb]
 MEMORY|                        rank 0           min           max       average
 MEMORY| MemTotal           1444892832    1444892832    1444892832    1444892832
 MEMORY| MemFree            1425857568    1425857568    1425857568    1425857568
 MEMORY| Buffers                 30552         30552         30552         30552
 MEMORY| Cached                 776740        776740        776740        776740
 MEMORY| Slab                  1010400       1010400       1010432       1010402
 MEMORY| SReclaimable           118856        118856        118856        118856
 MEMORY| MemLikelyFree      1426783716    1426783716    1426783716    1426783716


 GENERATE|  Preliminary Number of Bonds generated:                             0
 GENERATE|  Achieved consistency in connectivity generation.

 *******************************************************************************
 *******************************************************************************
 **                                                                           **
 **     #####                         ##              ##                      **
 **    ##   ##            ##          ##              ##                      **
 **   ##     ##                       ##            ######                    **
 **   ##     ##  ##   ##  ##   #####  ##  ##   ####   ##    #####    #####    **
 **   ##     ##  ##   ##  ##  ##      ## ##   ##      ##   ##   ##  ##   ##   **
 **   ##  ## ##  ##   ##  ##  ##      ####     ###    ##   ######   ######    **
 **    ##  ###   ##   ##  ##  ##      ## ##      ##   ##   ##       ##        **
 **     #######   #####   ##   #####  ##  ##  ####    ##    #####   ##        **
 **           ##                                                    ##        **
 **                                                                           **
 **                                                ... make the atoms dance   **
 **                                                                           **
 **            Copyright (C) by CP2K developers group (2000-2023)             **
 **                      J. Chem. Phys. 152, 194103 (2020)                    **
 **                                                                           **
 *******************************************************************************


 TOTAL NUMBERS AND MAXIMUM NUMBERS

  Total number of            - Atomic kinds:                                   5
                             - Atoms:                                        106
                             - Shell sets:                                   212
                             - Shells:                                       652
                             - Primitive Cartesian functions:                636
                             - Cartesian basis functions:                   1548
                             - Spherical basis functions:                   1472

  Maximum angular momentum of- Orbital basis functions:                        2
                             - Local part of the GTH pseudopotential:          2
                             - Non-local part of the GTH pseudopotential:      0


 SCF PARAMETERS         Density guess:                                    ATOMIC
                        --------------------------------------------------------
                        max_scf:                                             150
                        max_scf_history:                                       0
                        max_diis:                                              4
                        --------------------------------------------------------
                        eps_scf:                                        1.00E-05
                        eps_scf_history:                                0.00E+00
                        eps_diis:                                       1.00E-01
                        eps_eigval:                                     1.00E-05
                        --------------------------------------------------------
                        level_shift [a.u.]:                             0.000000
                        --------------------------------------------------------
                        Outer loop SCF in use
                        No variables optimised in outer loop
                        eps_scf                                         1.00E-05
                        max_scf                                                3
                        No outer loop optimization
                        step_size                                       5.00E-01

 Number of electrons:                                                        412
 Number of occupied orbitals:                                                206
 Number of molecular orbitals:                                               206

 Number of orbital functions:                                               1472
 Number of independent orbital functions:                                   1472

 Extrapolation method: initial_guess


 SCF WAVEFUNCTION OPTIMIZATION

  ----------------------------------- OT ---------------------------------------
  Minimizer      : DIIS                : direct inversion
                                         in the iterative subspace
                                         using   7 DIIS vectors
                                         safer DIIS on
  Preconditioner : FULL_ALL            : diagonalization, state selective
  Precond_solver : DEFAULT
  stepsize       :    0.15000000                  energy_gap     :    0.00100000
  eps_taylor     :   0.10000E-15                  max_taylor     :             4
  ----------------------------------- OT ---------------------------------------

  Step     Update method      Time    Convergence         Total energy    Change
  ------------------------------------------------------------------------------
     1 OT DIIS     0.15E+00    1.0     0.07667694      -837.2256287370 -8.37E+02
     2 OT DIIS     0.15E+00    1.3     0.16087090      -796.5930453814  4.06E+01
     3 OT DIIS     0.15E+00    1.6     0.02454526      -866.9036511630 -7.03E+01
     4 OT DIIS     0.15E+00    1.5     0.04121578      -874.0969193376 -7.19E+00
     5 OT DIIS     0.15E+00    0.3     0.02255581      -881.2738762335 -7.18E+00
     6 OT DIIS     0.15E+00    0.3     0.02192358      -884.5163065422 -3.24E+00
     7 OT DIIS     0.15E+00    0.3     0.01805831      -887.3464934035 -2.83E+00
     8 OT DIIS     0.15E+00    0.3     0.01297188      -889.8620768973 -2.52E+00
     9 OT DIIS     0.15E+00    0.3     0.01185924      -892.2812330575 -2.42E+00
    10 OT DIIS     0.15E+00    0.3     0.00665902      -893.4559622423 -1.17E+00
    11 OT DIIS     0.15E+00    0.4     0.00625321      -894.2522572940 -7.96E-01
    12 OT DIIS     0.15E+00    0.3     0.00487262      -894.7381610275 -4.86E-01
    13 OT DIIS     0.15E+00    0.3     0.00379858      -895.2257412227 -4.88E-01
    14 OT DIIS     0.15E+00    0.3     0.00396785      -895.5212479030 -2.96E-01
    15 OT DIIS     0.15E+00    0.4     0.00334636      -895.7982527342 -2.77E-01
    16 OT DIIS     0.15E+00    0.3     0.00258240      -896.0702228596 -2.72E-01
    17 OT DIIS     0.15E+00    0.3     0.00229068      -896.3652971811 -2.95E-01
    18 OT DIIS     0.15E+00    1.1     0.00225053      -896.4779017926 -1.13E-01
    19 OT DIIS     0.15E+00    1.0     0.00191159      -896.7080476399 -2.30E-01
    20 OT DIIS     0.15E+00    0.3     0.00176110      -896.9135429796 -2.05E-01
    21 OT DIIS     0.15E+00    0.3     0.00171862      -897.0290828019 -1.16E-01
    22 OT DIIS     0.15E+00    0.3     0.00162663      -897.1256675218 -9.66E-02
    23 OT DIIS     0.15E+00    0.3     0.00147940      -897.2314276378 -1.06E-01
    24 OT DIIS     0.15E+00    0.3     0.00137706      -897.3539487887 -1.23E-01
    25 OT DIIS     0.15E+00    0.3     0.00137908      -897.4990232528 -1.45E-01
    26 OT DIIS     0.15E+00    0.3     0.00127446      -897.5431610580 -4.41E-02
    27 OT DIIS     0.15E+00    0.5     0.00112231      -897.6353761787 -9.22E-02
    28 OT DIIS     0.15E+00    0.3     0.00111038      -897.7052955431 -6.99E-02
    29 OT DIIS     0.15E+00    0.3     0.00110335      -897.7849907022 -7.97E-02
    30 OT DIIS     0.15E+00    0.3     0.00101465      -897.8519448174 -6.70E-02
    31 OT DIIS     0.15E+00    0.4     0.00096551      -897.9074569467 -5.55E-02
    32 OT DIIS     0.15E+00    0.3     0.00091596      -897.9718299795 -6.44E-02
    33 OT DIIS     0.15E+00    0.3     0.00089459      -898.0366347656 -6.48E-02
    34 OT DIIS     0.15E+00    0.3     0.00093093      -898.0782938875 -4.17E-02
    35 OT DIIS     0.15E+00    0.3     0.00087142      -898.1552269801 -7.69E-02
    36 OT DIIS     0.15E+00    0.3     0.00081526      -898.2036969086 -4.85E-02
    37 OT DIIS     0.15E+00    0.3     0.00078625      -898.2451258953 -4.14E-02
    38 OT DIIS     0.15E+00    0.3     0.00076010      -898.2791209286 -3.40E-02
    39 OT DIIS     0.15E+00    0.3     0.00077220      -898.3267131837 -4.76E-02
    40 OT DIIS     0.15E+00    0.3     0.00071129      -898.3878558318 -6.11E-02
    41 OT DIIS     0.15E+00    0.3     0.00072797      -898.4448530956 -5.70E-02
    42 OT DIIS     0.15E+00    0.3     0.00068786      -898.4662756171 -2.14E-02
    43 OT DIIS     0.15E+00    0.3     0.00059245      -898.4815647847 -1.53E-02
    44 OT DIIS     0.15E+00    0.3     0.00062189      -898.5266553734 -4.51E-02
    45 OT DIIS     0.15E+00    0.3     0.00063489      -898.5732105084 -4.66E-02
    46 OT DIIS     0.15E+00    0.3     0.00060475      -898.6143165073 -4.11E-02
    47 OT DIIS     0.15E+00    0.3     0.00054347      -898.6345100370 -2.02E-02
    48 OT DIIS     0.15E+00    0.3     0.00051277      -898.6501062485 -1.56E-02
    49 OT DIIS     0.15E+00    0.3     0.00056666      -898.6707186014 -2.06E-02
    50 OT DIIS     0.15E+00    0.3     0.00054434      -898.6912794046 -2.06E-02
    51 OT DIIS     0.15E+00    0.5     0.00046604      -898.7195133909 -2.82E-02
    52 OT DIIS     0.15E+00    0.5     0.00045639      -898.7410803240 -2.16E-02
    53 OT DIIS     0.15E+00    0.3     0.00043275      -898.7752415655 -3.42E-02
    54 OT DIIS     0.15E+00    0.3     0.00043109      -898.7848613097 -9.62E-03
    55 OT DIIS     0.15E+00    0.3     0.00050834      -898.7829443721  1.92E-03
    56 OT DIIS     0.15E+00    0.3     0.00039863      -898.8154275965 -3.25E-02
    57 OT DIIS     0.15E+00    0.3     0.00047282      -898.8338839226 -1.85E-02
    58 OT DIIS     0.15E+00    0.3     0.00041499      -898.8519862923 -1.81E-02
    59 OT DIIS     0.15E+00    0.3     0.00037264      -898.8683374746 -1.64E-02
    60 OT SD       0.15E+00    0.3     0.00036474      -898.8866665132 -1.83E-02
    61 OT DIIS     0.15E+00    0.3     0.00056020      -898.8908237840 -4.16E-03
    62 OT DIIS     0.15E+00    0.3     0.00035501      -898.8941877774 -3.36E-03
    63 OT DIIS     0.15E+00    0.3     0.00036084      -898.9120454892 -1.79E-02
    64 OT DIIS     0.15E+00    0.3     0.00034428      -898.9342200132 -2.22E-02
    65 OT DIIS     0.15E+00    0.3     0.00031980      -898.9568183858 -2.26E-02
    66 OT DIIS     0.15E+00    0.3     0.00032186      -898.9693002994 -1.25E-02
    67 OT DIIS     0.15E+00    0.3     0.00030946      -898.9763111179 -7.01E-03
    68 OT DIIS     0.15E+00    0.3     0.00031747      -898.9752576809  1.05E-03
    69 OT DIIS     0.15E+00    0.3     0.00029642      -898.9903969967 -1.51E-02
    70 OT DIIS     0.15E+00    0.3     0.00030423      -899.0001145068 -9.72E-03
    71 OT DIIS     0.15E+00    0.3     0.00025530      -899.0057839494 -5.67E-03
    72 OT DIIS     0.15E+00    0.3     0.00025747      -899.0206704191 -1.49E-02
    73 OT SD       0.15E+00    0.3     0.00026879      -899.0217900934 -1.12E-03
    74 OT DIIS     0.15E+00    0.3     0.00054367      -899.0230409408 -1.25E-03
    75 OT DIIS     0.15E+00    0.3     0.00023551      -899.0385839456 -1.55E-02
    76 OT DIIS     0.15E+00    0.3     0.00023713      -899.0493262236 -1.07E-02
    77 OT DIIS     0.15E+00    0.3     0.00022576      -899.0552598874 -5.93E-03
    78 OT DIIS     0.15E+00    0.3     0.00023282      -899.0596058953 -4.35E-03
    79 OT SD       0.15E+00    0.3     0.00021885      -899.0663147749 -6.71E-03
    80 OT DIIS     0.15E+00    0.3     0.00040309      -899.0675285268 -1.21E-03
    81 OT DIIS     0.15E+00    0.3     0.00020251      -899.0801217996 -1.26E-02
    82 OT DIIS     0.15E+00    0.3     0.00020300      -899.0869382206 -6.82E-03
    83 OT DIIS     0.15E+00    0.3     0.00019205      -899.0923924427 -5.45E-03
    84 OT DIIS     0.15E+00    0.3     0.00019189      -899.0928248370 -4.32E-04
    85 OT DIIS     0.15E+00    0.3     0.00021187      -899.0953198925 -2.50E-03
    86 OT DIIS     0.15E+00    0.3     0.00017491      -899.1027883384 -7.47E-03
    87 OT DIIS     0.15E+00    0.3     0.00018453      -899.1116074734 -8.82E-03
    88 OT DIIS     0.15E+00    0.6     0.00017217      -899.1133339619 -1.73E-03
    89 OT DIIS     0.15E+00    0.8     0.00017215      -899.1205493697 -7.22E-03
    90 OT SD       0.15E+00    0.3     0.00016710      -899.1264666659 -5.92E-03
    91 OT DIIS     0.15E+00    0.3     0.00020961      -899.1275230802 -1.06E-03
    92 OT DIIS     0.15E+00    0.3     0.00016788      -899.1284970733 -9.74E-04
    93 OT DIIS     0.15E+00    0.5     0.00016821      -899.1343396396 -5.84E-03
    94 OT DIIS     0.15E+00    0.3     0.00015687      -899.1384593840 -4.12E-03
    95 OT DIIS     0.15E+00    0.3     0.00015641      -899.1438267449 -5.37E-03
    96 OT DIIS     0.15E+00    0.3     0.00015616      -899.1505872150 -6.76E-03
    97 OT DIIS     0.15E+00    0.3     0.00014971      -899.1530265121 -2.44E-03
    98 OT DIIS     0.15E+00    0.3     0.00014416      -899.1539034106 -8.77E-04
    99 OT DIIS     0.15E+00    0.3     0.00014446      -899.1581140491 -4.21E-03
   100 OT DIIS     0.15E+00    0.3     0.00014530      -899.1604125652 -2.30E-03
   101 OT DIIS     0.15E+00    0.3     0.00014034      -899.1628014335 -2.39E-03
   102 OT DIIS     0.15E+00    0.3     0.00013641      -899.1680534976 -5.25E-03
   103 OT DIIS     0.15E+00    0.3     0.00013616      -899.1699755148 -1.92E-03
   104 OT DIIS     0.15E+00    0.3     0.00013948      -899.1724640299 -2.49E-03
   105 OT DIIS     0.15E+00    0.3     0.00013553      -899.1733219736 -8.58E-04
   106 OT DIIS     0.15E+00    0.3     0.00013975      -899.1764207113 -3.10E-03
   107 OT DIIS     0.15E+00    0.3     0.00013317      -899.1784816650 -2.06E-03
   108 OT DIIS     0.15E+00    0.3     0.00013152      -899.1839498953 -5.47E-03
   109 OT SD       0.15E+00    0.3     0.00012933      -899.1865327696 -2.58E-03
   110 OT DIIS     0.15E+00    0.3     0.00013098      -899.1872667703 -7.34E-04
   111 OT DIIS     0.15E+00    0.3     0.00012971      -899.1878182843 -5.52E-04
   112 OT DIIS     0.15E+00    0.3     0.00012600      -899.1928594761 -5.04E-03
   113 OT DIIS     0.15E+00    0.3     0.00013147      -899.2002623477 -7.40E-03
   114 OT DIIS     0.15E+00    0.3     0.00013273      -899.2059785598 -5.72E-03
   115 OT SD       0.15E+00    0.3     0.00013614      -899.2092139337 -3.24E-03
   116 OT SD       0.15E+00    0.3     0.00015575      -899.2098952871 -6.81E-04
   117 OT SD       0.15E+00    0.3     0.00038740      -899.2099416059 -4.63E-05
   118 OT DIIS     0.15E+00    0.3     0.00142741      -899.2017850691  8.16E-03
   119 OT DIIS     0.15E+00    0.3     0.00012016      -899.2133016797 -1.15E-02
   120 OT DIIS     0.15E+00    0.3     0.00012012      -899.2164384634 -3.14E-03
   121 OT DIIS     0.15E+00    0.3     0.00012153      -899.2184941495 -2.06E-03
   122 OT DIIS     0.15E+00    0.3     0.00012077      -899.2229358688 -4.44E-03
   123 OT DIIS     0.15E+00    0.3     0.00011797      -899.2239929814 -1.06E-03
   124 OT SD       0.15E+00    0.3     0.00011762      -899.2286550339 -4.66E-03
   125 OT SD       0.15E+00    0.3     0.00013234      -899.2292204958 -5.65E-04
   126 OT DIIS     0.15E+00    0.3     0.00029251      -899.2294673131 -2.47E-04
   127 OT DIIS     0.15E+00    0.3     0.00011545      -899.2347272910 -5.26E-03
   128 OT DIIS     0.15E+00    0.3     0.00011787      -899.2369937479 -2.27E-03
   129 OT DIIS     0.15E+00    0.3     0.00011852      -899.2449650818 -7.97E-03
   130 OT DIIS     0.15E+00    0.3     0.00012123      -899.2479583352 -2.99E-03
   131 OT SD       0.15E+00    0.3     0.00012639      -899.2489453815 -9.87E-04
   132 OT SD       0.15E+00    0.3     0.00019241      -899.2493974739 -4.52E-04
   133 OT DIIS     0.15E+00    0.3     0.00059818      -899.2483840713  1.01E-03
   134 OT DIIS     0.15E+00    0.3     0.00011500      -899.2517951472 -3.41E-03
   135 OT DIIS     0.15E+00    0.3     0.00010584      -899.2520942629 -2.99E-04
   136 OT DIIS     0.15E+00    0.3     0.00010589      -899.2567535285 -4.66E-03
   137 OT DIIS     0.15E+00    0.3     0.00011388      -899.2605070644 -3.75E-03
   138 OT SD       0.15E+00    0.3     0.00012199      -899.2667363385 -6.23E-03
   139 OT SD       0.15E+00    0.3     0.00015880      -899.2671981781 -4.62E-04
   140 OT DIIS     0.15E+00    0.3     0.00046964      -899.2667227987  4.75E-04
   141 OT DIIS     0.15E+00    0.3     0.00010489      -899.2680370228 -1.31E-03
   142 OT DIIS     0.15E+00    0.3     0.00010579      -899.2738470688 -5.81E-03
   143 OT DIIS     0.15E+00    0.3     0.00012228      -899.2759323135 -2.09E-03
   144 OT DIIS     0.15E+00    0.3     0.00010014      -899.2789330142 -3.00E-03
   145 OT SD       0.15E+00    0.3     0.00012842      -899.2848802614 -5.95E-03
   146 OT SD       0.15E+00    0.3     0.00014173      -899.2853721171 -4.92E-04
   147 OT SD       0.15E+00    0.3     0.00038680      -899.2851359113  2.36E-04
   148 OT DIIS     0.15E+00    0.3     0.00143739      -899.2765554910  8.58E-03
   149 OT DIIS     0.15E+00    0.3     0.00009264      -899.2866619467 -1.01E-02
   150 OT SD       0.15E+00    0.3     0.00010075      -899.2883995850 -1.74E-03

  Leaving inner SCF loop after reaching   150 steps.


  Electronic density on regular grids:       -411.9999998514        0.0000001486
  Core density on regular grids:              411.9999999795       -0.0000000205
  Total charge density on r-space grids:        0.0000001281
  Total charge density g-space grids:           0.0000001281

  Overlap energy of the core charge distribution:               0.01304324373266
  Self energy of the core charge distribution:              -2358.64663642500864
  Core Hamiltonian energy:                                    765.13329372849830
  Hartree energy:                                             924.83620583645711
  Exchange-correlation energy:                               -230.62430596867028

  Total energy:                                              -899.28839958499088

  outer SCF iter =    1 RMS gradient =   0.10E-03 energy =       -899.2883995850

  ----------------------------------- OT ---------------------------------------
  Minimizer      : DIIS                : direct inversion
                                         in the iterative subspace
                                         using   7 DIIS vectors
                                         safer DIIS on
  Preconditioner : FULL_ALL            : diagonalization, state selective
  Precond_solver : DEFAULT
  stepsize       :    0.15000000                  energy_gap     :    0.00100000
  eps_taylor     :   0.10000E-15                  max_taylor     :             4
  ----------------------------------- OT ---------------------------------------

  Step     Update method      Time    Convergence         Total energy    Change
  ------------------------------------------------------------------------------
     1 OT DIIS     0.15E+00    1.0     0.00207312      -899.2886110994 -2.12E-04
     2 OT DIIS     0.15E+00    0.3     0.01755137      -899.1095465299  1.79E-01
     3 OT DIIS     0.15E+00    0.3     0.00418580      -899.3471226001 -2.38E-01
     4 OT DIIS     0.15E+00    0.3     0.00690259      -899.3146900459  3.24E-02
     5 OT DIIS     0.15E+00    0.3     0.00958637      -899.3120874070  2.60E-03
     6 OT DIIS     0.15E+00    0.3     0.01002812      -899.3147200371 -2.63E-03
     7 OT DIIS     0.15E+00    0.3     0.00208252      -899.3845053327 -6.98E-02
     8 OT DIIS     0.15E+00    0.3     0.00170094      -899.3891408328 -4.64E-03
     9 OT DIIS     0.15E+00    0.3     0.00153941      -899.3966614806 -7.52E-03
    10 OT DIIS     0.15E+00    0.3     0.00090518      -899.3999780361 -3.32E-03
    11 OT DIIS     0.15E+00    0.3     0.00109438      -899.4000521900 -7.42E-05
    12 OT DIIS     0.15E+00    0.3     0.00096133      -899.4029188178 -2.87E-03
    13 OT DIIS     0.15E+00    0.3     0.00537306      -899.3833046916  1.96E-02
    14 OT DIIS     0.15E+00    0.3     0.00091428      -899.4053841778 -2.21E-02
    15 OT DIIS     0.15E+00    0.3     0.00037488      -899.4068909599 -1.51E-03
    16 OT DIIS     0.15E+00    0.3     0.00045209      -899.4073285056 -4.38E-04
    17 OT DIIS     0.15E+00    0.3     0.00048454      -899.4092465424 -1.92E-03
    18 OT DIIS     0.15E+00    0.3     0.00037571      -899.4088499624  3.97E-04
    19 OT DIIS     0.15E+00    0.3     0.00054597      -899.4097650384 -9.15E-04
    20 OT DIIS     0.15E+00    0.3     0.00067513      -899.4105150831 -7.50E-04
    21 OT DIIS     0.15E+00    0.3     0.00206838      -899.4072213713  3.29E-03
    22 OT DIIS     0.15E+00    0.3     0.00144710      -899.4087102992 -1.49E-03
    23 OT DIIS     0.15E+00    0.3     0.00156536      -899.4108726864 -2.16E-03
    24 OT DIIS     0.15E+00    0.3     0.00124190      -899.4111972202 -3.25E-04
    25 OT DIIS     0.15E+00    0.3     0.00065114      -899.4128018090 -1.60E-03
    26 OT DIIS     0.15E+00    0.3     0.00044690      -899.4142006482 -1.40E-03
    27 OT DIIS     0.15E+00    0.3     0.00032177      -899.4153915572 -1.19E-03
    28 OT DIIS     0.15E+00    0.3     0.00039322      -899.4158218962 -4.30E-04
    29 OT DIIS     0.15E+00    0.3     0.00128338      -899.4148822890  9.40E-04
    30 OT DIIS     0.15E+00    0.3     0.00095415      -899.4149441719 -6.19E-05
    31 OT DIIS     0.15E+00    0.3     0.00055286      -899.4165149847 -1.57E-03
    32 OT DIIS     0.15E+00    0.3     0.00122063      -899.4153667023  1.15E-03
    33 OT DIIS     0.15E+00    0.3     0.00055779      -899.4165963206 -1.23E-03
    34 OT DIIS     0.15E+00    0.3     0.00031128      -899.4168557172 -2.59E-04
    35 OT DIIS     0.15E+00    0.3     0.00027935      -899.4170280183 -1.72E-04
    36 OT DIIS     0.15E+00    0.3     0.00012231      -899.4172430013 -2.15E-04
    37 OT DIIS     0.15E+00    0.3     0.00020791      -899.4173183535 -7.54E-05
    38 OT DIIS     0.15E+00    0.3     0.00056523      -899.4169053587  4.13E-04
    39 OT DIIS     0.15E+00    0.3     0.00011254      -899.4173645903 -4.59E-04
    40 OT DIIS     0.15E+00    0.3     0.00035802      -899.4173066168  5.80E-05
    41 OT DIIS     0.15E+00    0.3     0.00015068      -899.4174047408 -9.81E-05
    42 OT DIIS     0.15E+00    0.3     0.00017029      -899.4173695717  3.52E-05
    43 OT DIIS     0.15E+00    0.3     0.00013407      -899.4174067736 -3.72E-05
    44 OT DIIS     0.15E+00    0.3     0.00004570      -899.4174455977 -3.88E-05
    45 OT DIIS     0.15E+00    0.3     0.00004203      -899.4174581312 -1.25E-05
    46 OT DIIS     0.15E+00    0.3     0.00011731      -899.4174494268  8.70E-06
    47 OT DIIS     0.15E+00    0.3     0.00003436      -899.4174653121 -1.59E-05
    48 OT DIIS     0.15E+00    0.3     0.00006686      -899.4174670577 -1.75E-06
    49 OT DIIS     0.15E+00    0.3     0.00011670      -899.4174646598  2.40E-06
    50 OT DIIS     0.15E+00    0.3     0.00003437      -899.4174749406 -1.03E-05
    51 OT DIIS     0.15E+00    0.3     0.00004639      -899.4174733443  1.60E-06
    52 OT DIIS     0.15E+00    0.3     0.00003990      -899.4174751428 -1.80E-06
    53 OT DIIS     0.15E+00    0.3     0.00001476      -899.4174797104 -4.57E-06
    54 OT DIIS     0.15E+00    0.3     0.00003363      -899.4174801514 -4.41E-07
    55 OT DIIS     0.15E+00    0.3     0.00001854      -899.4174804921 -3.41E-07
    56 OT DIIS     0.15E+00    0.3     0.00002221      -899.4174814810 -9.89E-07
    57 OT DIIS     0.15E+00    0.3     0.00004127      -899.4174811492  3.32E-07
    58 OT DIIS     0.15E+00    0.3     0.00001635      -899.4174823714 -1.22E-06
    59 OT DIIS     0.15E+00    0.3     0.00001453      -899.4174825514 -1.80E-07
    60 OT DIIS     0.15E+00    0.3     0.00002016      -899.4174822595  2.92E-07
    61 OT DIIS     0.15E+00    0.3     0.00000791      -899.4174832015 -9.42E-07

  *** SCF run converged in    61 steps ***


  Electronic density on regular grids:       -411.9999998587        0.0000001413
  Core density on regular grids:              411.9999999795       -0.0000000205
  Total charge density on r-space grids:        0.0000001208
  Total charge density g-space grids:           0.0000001208

  Overlap energy of the core charge distribution:               0.01304324373266
  Self energy of the core charge distribution:              -2358.64663642500864
  Core Hamiltonian energy:                                    765.03239866279318
  Hartree energy:                                             924.83458667206810
  Exchange-correlation energy:                               -230.65087535510969

  Total energy:                                              -899.41748320152442

  outer SCF iter =    2 RMS gradient =   0.79E-05 energy =       -899.4174832015
  outer SCF loop converged in   2 iterations or  211 steps


 *******************************************************************************
 **                                                                           **
 **         ######## #######   #######   ######## #######  ########           **
 **            ##    ##     ## ##     ## ##       ##   ##     ##              **
 **            ##    ##     ## ##     ## ######   #######     ##              **
 **            ##    ##     ## ##     ## ##       ##          ##              **
 **            ##    #######   #######   ##       ##          ##              **
 **                                                                           **
 *******************************************************************************
 KERNEL|                                                                    FULL
 FUNCTIONAL| PBE:
 FUNCTIONAL| J.P.Perdew, K.Burke, M.Ernzerhof, Phys. Rev. Letter, vol. 77, n 18,
 FUNCTIONAL|  pp. 3865-3868, (1996){spin unpolarized}
 KERNEL| Spin symmetry of excitations                                    Singlet
 TDDFPT| Number of states calculated                                         100
 TDDFPT| Number of Davidson iterations                                        50
 TDDFPT| Davidson iteration convergence                                0.367E-05
 TDDFPT| Max. number of Krylov space vectors                                5000
 TDDFPT| Molecular Orbitals:        Spin       AOs       Occ      Virt     Total
 TDDFPT|                               1      1472       206      1266      1472

 -------------------------------------------------------------------------------
 -                            TDDFPT Initial Guess                             -
 -------------------------------------------------------------------------------
          State         Occupied      ->      Virtual          Excitation
          number         orbital              orbital          energy (eV)
 -------------------------------------------------------------------------------
             1              206                  207              0.15920
             2              205                  207              0.23247
             3              204                  207              0.26425
             4              206                  208              0.30101
             5              205                  208              0.37428
             6              204                  208              0.40606
             7              206                  209              0.44149
             8              203                  207              0.46187
             9              205                  209              0.51477
            10              204                  209              0.54655
            11              203                  208              0.60368
            12              206                  210              0.61611
            13              205                  210              0.68939
            14              204                  210              0.72117
            15              203                  209              0.74416
            16              206                  211              0.91827
            17              203                  210              0.91879
            18              206                  212              0.92631
            19              205                  211              0.99155
            20              205                  212              0.99958
            21              204                  211              1.02333
            22              204                  212              1.03137
            23              206                  213              1.12920
            24              202                  207              1.14217
            25              206                  214              1.15833
            26              205                  213              1.20248
            27              203                  211              1.22094
            28              203                  212              1.22898
            29              205                  214              1.23161
            30              204                  213              1.23426
            31              204                  214              1.26339
            32              202                  208              1.28398
            33              206                  215              1.37228
            34              202                  209              1.42446
            35              203                  213              1.43187
            36              201                  207              1.44062
            37              205                  215              1.44556
            38              206                  216              1.44768
            39              206                  217              1.45592
            40              203                  214              1.46101
            41              204                  215              1.47734
            42              205                  216              1.52095
            43              205                  217              1.52920
            44              206                  218              1.54174
            45              204                  216              1.55273
            46              204                  217              1.56098
            47              201                  208              1.58243
            48              202                  210              1.59908
            49              205                  218              1.61502
            50              204                  218              1.64680
            51              203                  215              1.67495
            52              201                  209              1.72291
            53              203                  216              1.75035
            54              203                  217              1.75860
            55              206                  219              1.81969
            56              203                  218              1.84441
            57              205                  219              1.89296
            58              201                  210              1.89753
            59              202                  211              1.90124
            60              202                  212              1.90928
            61              206                  220              1.91437
            62              204                  219              1.92475
            63              205                  220              1.98764
            64              206                  221              2.00231
            65              204                  220              2.01943
            66              205                  221              2.07558
            67              200                  207              2.10276
            68              199                  207              2.10476
            69              204                  221              2.10736
            70              202                  213              2.11217
            71              203                  219              2.12236
            72              202                  214              2.14130
            73              201                  211              2.19969
            74              201                  212              2.20773
            75              206                  222              2.21686
            76              203                  220              2.21704
            77              198                  207              2.24105
            78              200                  208              2.24457
            79              199                  208              2.24657
            80              197                  207              2.25450
            81              205                  222              2.29013
            82              203                  221              2.30498
            83              204                  222              2.32192
            84              202                  215              2.35525
            85              198                  208              2.38286
            86              200                  209              2.38505
            87              199                  209              2.38705
            88              197                  208              2.39631
            89              201                  213              2.41062
            90              206                  223              2.41924
            91              202                  216              2.43065
            92              202                  217              2.43889
            93              201                  214              2.43976
            94              196                  207              2.44136
            95              195                  207              2.46280
            96              205                  223              2.49252
            97              203                  222              2.51953
            98              198                  209              2.52334
            99              204                  223              2.52430
           100              202                  218              2.52471

      Number of active states:                                     260796
 -------------------------------------------------------------------------------

 -------------------------------------------------------------------------------
 -                      TDDFPT WAVEFUNCTION OPTIMIZATION                       -
 -------------------------------------------------------------------------------

          Step            Time         Convergence           Conv. states
 -------------------------------------------------------------------------------
             1            34.5          2.1234E-01                      0
             2            33.1          2.0745E-01                      0
             3            35.2          2.0780E-03                      0
             4            25.9          2.7216E-04                     87
             5            29.6          5.3661E-06                     99
             6            24.3          2.8277E-08                    100
 ------------------------- Restart Davidson iterations -------------------------
             7            20.6          2.0539E-14                    100

 -------------------------------------------------------------------------------
 -  TDDFPT run converged in 7 iteration(s)
 -------------------------------------------------------------------------------

 R-TDDFPT states of multiplicity 1
 Transition dipoles calculated using velocity formulation

         State    Excitation        Transition dipole (a.u.)        Oscillator
         number   energy (eV)       x           y           z     strength (a.u.)
         ------------------------------------------------------------------------
 TDDFPT|      1       0.28449   2.8710E-02  6.4626E-03 -5.3630E-02   2.60829E-05
 TDDFPT|      2       0.33553   2.1064E+00  1.2278E+01 -3.8766E+00   1.39926E+00
 TDDFPT|      3       0.38195   4.9982E-03  1.6379E-01  2.9745E-02   2.59546E-04
 TDDFPT|      4       0.44847  -1.7571E+00 -4.3918E-01  4.9116E+00   3.01104E-01
 TDDFPT|      5       0.47198   9.9725E-02  2.4165E-03 -2.6415E-01   9.21880E-04
 TDDFPT|      6       0.59975   3.6969E-01  4.0072E+00  3.5024E+00   4.18202E-01
 TDDFPT|      7       0.62676   3.7147E-01 -2.1303E+00 -1.0561E+00   8.89318E-02
 TDDFPT|      8       0.64162   3.4742E-02 -2.0041E-02 -1.8441E-02   3.06320E-05
 TDDFPT|      9       0.73001  -5.2333E-03  6.1991E-02  1.6900E-02   7.43276E-05
 TDDFPT|     10       0.89605   4.0329E-01 -6.5801E+00 -2.0917E+00   1.05014E+00
 TDDFPT|     11       0.90257   2.2035E-02 -3.1515E-01 -1.0382E-01   2.44530E-03
 TDDFPT|     12       0.96041  -4.8115E-01 -1.7075E+00 -1.3060E+00   1.14183E-01
 TDDFPT|     13       0.96216  -4.1848E-02 -1.4729E-01 -1.1553E-01   8.67269E-04
 TDDFPT|     14       1.00565  -1.4817E-01  2.8092E+00  4.9844E-01   2.01094E-01
 TDDFPT|     15       1.01211   2.7338E-02  5.4466E-03  8.1860E-03   2.09295E-05
 TDDFPT|     16       1.02877   1.2854E+00 -2.0601E+00 -3.3957E-01   1.51517E-01
 TDDFPT|     17       1.03672   5.7005E-02 -6.7073E-02  5.4745E-03   1.97561E-04
 TDDFPT|     18       1.12921   8.6589E-01  2.1704E+00 -4.0910E-01   1.55690E-01
 TDDFPT|     19       1.13849   1.3152E-01  1.4889E+00  1.3597E+00   1.13883E-01
 TDDFPT|     20       1.15967  -1.6412E-03 -1.2662E-01 -9.5248E-02   7.13356E-04
 TDDFPT|     21       1.21076  -9.7193E-02  5.8482E-02 -2.2076E-02   3.96118E-04
 TDDFPT|     22       1.21745  -4.2933E-01  5.3512E-01 -2.0533E-01   1.52964E-02
 TDDFPT|     23       1.23484  -2.5762E-01  5.2258E-02 -3.6802E-02   2.13139E-03
 TDDFPT|     24       1.24551   1.7575E+00 -4.3415E-01  3.1991E-01   1.03126E-01
 TDDFPT|     25       1.27512  -4.0512E-01  8.2991E-01 -4.0351E-01   3.17301E-02
 TDDFPT|     26       1.27809  -2.3723E-01  3.8020E-01 -2.0589E-01   7.61592E-03
 TDDFPT|     27       1.28104  -6.0330E-02  4.2925E-02 -7.7567E-03   1.73950E-04
 TDDFPT|     28       1.29932  -8.9767E-01 -1.7281E+00  4.0341E-01   1.25900E-01
 TDDFPT|     29       1.39492   2.7069E-02  6.6757E-02 -4.2514E-02   2.39109E-04
 TDDFPT|     30       1.42855  -9.2384E-01 -1.7757E+00  1.0605E+00   1.79584E-01
 TDDFPT|     31       1.44182   6.9925E-02  1.2914E-01  1.5211E-02   7.69971E-04
 TDDFPT|     32       1.45338   1.6137E+00  2.9618E-01  1.3349E+00   1.59297E-01
 TDDFPT|     33       1.46852  -8.1808E-01 -2.0128E+00 -6.1305E-01   1.83365E-01
 TDDFPT|     34       1.47649  -4.1802E-02 -3.2394E-02 -3.3295E-02   1.41269E-04
 TDDFPT|     35       1.49168   1.1772E-02  1.8651E-02  3.5756E-02   6.45000E-05
 TDDFPT|     36       1.50163  -2.3081E-01  2.6166E-01  5.0040E-02   4.57090E-03
 TDDFPT|     37       1.51394  -3.1481E-02  1.2150E+00  1.2854E+00   1.16071E-01
 TDDFPT|     38       1.52717   1.1844E-01 -2.7926E+00 -1.5717E+00   3.84725E-01
 TDDFPT|     39       1.54703   7.1640E-04 -2.7401E-02 -2.5182E-02   5.25104E-05
 TDDFPT|     40       1.55533   8.8450E-03 -2.7348E-02 -1.5283E-02   4.03795E-05
 TDDFPT|     41       1.57842  -1.2963E-01 -4.9938E-01 -3.2520E-01   1.43831E-02
 TDDFPT|     42       1.58585   5.3525E-01 -1.8309E+00 -8.6329E-01   1.70327E-01
 TDDFPT|     43       1.60421  -2.1342E-02  7.8882E-02  3.0953E-02   3.00108E-04
 TDDFPT|     44       1.66195  -2.6669E-01  1.4006E+00  1.9666E-01   8.43417E-02
 TDDFPT|     45       1.66261  -5.3235E-02  2.1799E-01  1.3090E-02   2.05806E-03
 TDDFPT|     46       1.66541  -6.9785E-02  3.0089E-01  4.6187E-02   3.97973E-03
 TDDFPT|     47       1.69174  -1.2709E-03  1.1438E-02 -3.1782E-03   5.90823E-06
 TDDFPT|     48       1.79518  -4.2498E-02 -1.6118E-02 -7.0815E-03   9.30654E-05
 TDDFPT|     49       1.80094   1.0447E+00  2.6381E-01  1.1305E-01   5.17909E-02
 TDDFPT|     50       1.85833  -3.6819E-01  5.4911E-01 -3.9606E-01   2.70416E-02
 TDDFPT|     51       1.86798  -1.8025E-02  1.0675E-01  1.3851E-02   5.45132E-04
 TDDFPT|     52       1.87796   2.2136E-01 -1.8009E+00  5.6146E-02   1.51624E-01
 TDDFPT|     53       1.89232   8.6686E-03 -3.8944E-02 -4.3073E-03   7.46574E-05
 TDDFPT|     54       1.90190   5.1559E-01  5.8354E-01 -4.2729E-01   3.67610E-02
 TDDFPT|     55       1.92903  -1.9998E-03 -9.2585E-03  1.1076E-03   4.29816E-06
 TDDFPT|     56       1.94674  -2.1261E-01 -7.2314E-01  4.8181E-01   3.81685E-02
 TDDFPT|     57       1.96762  -2.1347E-03 -6.4947E-03 -4.8134E-03   3.36987E-06
 TDDFPT|     58       2.01453   3.6527E-01  2.0579E-01  6.0574E-01   2.67844E-02
 TDDFPT|     59       2.01489  -5.6434E-01 -3.2289E-01 -9.4731E-01   6.51664E-02
 TDDFPT|     60       2.05866   1.0059E+00 -3.9486E-01  1.4827E-01   6.00018E-02
 TDDFPT|     61       2.06878  -4.7561E-01 -7.9899E-01 -1.3403E-01   4.47317E-02
 TDDFPT|     62       2.08876   1.2932E-02  1.3139E-02  6.3573E-03   1.94597E-05
 TDDFPT|     63       2.12474   1.1122E-01  5.9052E-01  6.5624E-01   4.12137E-02
 TDDFPT|     64       2.13226   1.6763E-01  2.3109E-01  6.9650E-02   4.51101E-03
 TDDFPT|     65       2.13562  -1.3568E+00 -2.4258E+00 -8.0039E-01   4.37719E-01
 TDDFPT|     66       2.14426   1.9472E-01  1.2270E+00  8.5030E-01   1.19061E-01
 TDDFPT|     67       2.14576   2.1267E-02 -8.2614E-02 -1.1753E-01   1.10878E-03
 TDDFPT|     68       2.15697   1.3554E-02  4.8246E-02  4.0695E-02   2.20229E-04
 TDDFPT|     69       2.17323  -7.9532E-01  3.3100E-01 -4.6541E-01   5.10445E-02
 TDDFPT|     70       2.17535   1.7283E-01 -7.9246E-02  7.0764E-02   2.19355E-03
 TDDFPT|     71       2.22303  -2.4215E-03  8.1188E-03  6.2876E-03   6.06239E-06
 TDDFPT|     72       2.25315  -3.8519E-01 -1.8266E-01  1.0142E+00   6.68172E-02
 TDDFPT|     73       2.26466  -7.4151E-03  1.7608E-01 -6.6354E-01   2.61519E-02
 TDDFPT|     74       2.26661  -2.2883E-02  2.1947E-01 -7.5743E-01   3.45621E-02
 TDDFPT|     75       2.28697  -2.8783E-02 -6.2149E-02  1.1044E-01   9.46277E-04
 TDDFPT|     76       2.28950  -6.9973E-02 -1.9449E-01  2.4535E-01   5.77287E-03
 TDDFPT|     77       2.30941   1.9217E-03  7.2673E-03  3.3889E-03   3.84692E-06
 TDDFPT|     78       2.33813   5.1735E-01  7.5885E-01  4.1120E-01   5.80043E-02
 TDDFPT|     79       2.36901   5.9950E-03  1.0731E-03  2.1310E-03   2.41636E-06
 TDDFPT|     80       2.39033  -3.8267E-01  1.3310E+00  4.9753E-01   1.26816E-01
 TDDFPT|     81       2.39403  -5.9090E-02  1.7756E-01  7.2450E-02   2.36187E-03
 TDDFPT|     82       2.40889   2.4113E-01 -3.9868E-01 -1.6690E-01   1.44556E-02
 TDDFPT|     83       2.41086  -5.5609E-02  1.0448E-01  4.0462E-02   9.24161E-04
 TDDFPT|     84       2.41451   1.5290E-01 -2.5389E-01 -1.2871E-01   6.17593E-03
 TDDFPT|     85       2.42433   4.4580E-02  2.6920E-02  2.1962E-02   1.89728E-04
 TDDFPT|     86       2.43711  -3.9402E-01  1.6705E-01 -1.8591E-01   1.29995E-02
 TDDFPT|     87       2.44971   1.2835E-01  2.6644E-01  5.5989E-02   5.43739E-03
 TDDFPT|     88       2.45140  -4.4064E-01 -7.5584E-01 -1.1414E-01   4.67543E-02
 TDDFPT|     89       2.46932  -3.3716E-01  1.4578E+00  5.3746E-01   1.52925E-01
 TDDFPT|     90       2.48178   5.7247E-01  1.0984E+00 -3.3058E-01   9.99347E-02
 TDDFPT|     91       2.48266  -5.6947E-02 -1.0556E-01  3.2345E-02   9.38659E-04
 TDDFPT|     92       2.49001   3.1687E-03 -4.2687E-02 -1.6801E-02   1.28996E-04
 TDDFPT|     93       2.53161   2.0120E-01  2.7476E-01 -3.1734E-01   1.34389E-02
 TDDFPT|     94       2.54262  -3.0171E-02 -1.8178E-02  5.2465E-02   2.48754E-04
 TDDFPT|     95       2.55677   2.5968E-01  5.3992E-01 -1.5080E+00   1.64927E-01
 TDDFPT|     96       2.55979   5.9623E-01  4.7019E-01  2.5956E-01   4.03841E-02
 TDDFPT|     97       2.56118  -1.3363E-01 -8.5131E-02 -8.2635E-02   2.00374E-03
 TDDFPT|     98       2.57727   1.5404E-01 -7.3046E-01 -2.0970E-01   3.79654E-02
 TDDFPT|     99       2.58269   5.0378E-03 -5.0232E-02  3.4286E-03   1.62010E-04
 TDDFPT|    100       2.59812   1.0015E-02  2.9987E-02  8.5809E-03   6.83107E-05

 TDDFPT : CheckSum  =  0.679948E+00

 -------------------------------------------------------------------------------
 -                            Excitation analysis                              -
 -------------------------------------------------------------------------------
        State             Occupied              Virtual             Excitation
        number             orbital              orbital             amplitude
 -------------------------------------------------------------------------------
             1   0.28449 eV
                               205                  207               0.758055
                               206                  208               0.640683
                               204                  208              -0.061537
                               203                  209              -0.059372
                               203                  211               0.035243
                               202                  210              -0.034851
                               206                  210               0.031276
                               202                  208              -0.030123
                               205                  215              -0.021080
                               203                  207               0.018427
                               201                  209               0.017189
                               205                  213              -0.014741
                               201                  207              -0.012460
                               205                  211               0.010871
                               204                  210               0.010423
                               206                  212               0.010162
                               201                  211               0.010098
             2   0.33553 eV
                               206                  207              -0.835148
                               206                  209              -0.379279
                               205                  208              -0.235364
                               205                  210              -0.229306
                               204                  207               0.135226
                               206                  211               0.099182
                               204                  209              -0.080053
                               202                  207              -0.061607
                               201                  210              -0.045461
                               202                  209               0.041577
                               206                  215              -0.032376
                               201                  208              -0.018411
                               202                  211               0.017972
                               203                  210               0.017017
                               203                  212              -0.016762
                               203                  220              -0.016597
                               205                  214              -0.016153
                               206                  223              -0.016146
                               206                  221              -0.015893
                               205                  218               0.014726
                               205                  207              -0.013414
                               206                  208               0.013251
                               201                  218              -0.013138
                               204                  211               0.013070
                               202                  215               0.011720
                               205                  224              -0.011449
                               206                  219               0.011244
                               202                  217               0.010582
                               206                  225               0.010477
                               195                  208              -0.010450
                               206                  213              -0.010108
             3   0.38195 eV
                               206                  208              -0.715234
                               205                  207               0.567920
                               206                  210               0.298301
                               203                  207               0.190110
                               205                  209               0.114319
                               203                  209              -0.104502
                               205                  215              -0.058688
                               203                  211               0.046862
                               201                  207              -0.044767
                               205                  213              -0.033563
                               202                  210              -0.027349
                               205                  217              -0.026705
                               202                  208              -0.024093
                               206                  218              -0.021675
                               206                  224               0.017954
                               204                  210               0.016393
                               206                  214               0.015217
                               205                  211              -0.014840
                               201                  209               0.014591
                               204                  207               0.014503
                               206                  222               0.012903
                               205                  208              -0.012522
                               206                  207              -0.011760
                               205                  221              -0.010310
                               206                  230              -0.010203
                               202                  212              -0.010083
             4   0.44847 eV
                               204                  209              -0.612711
                               204                  207               0.563924
                               205                  208              -0.446344
                               206                  209               0.193215
                               205                  210               0.147447
                               206                  207               0.144724
                               203                  208              -0.104061
                               203                  210               0.076068
                               204                  208               0.042393
                               206                  211              -0.038925
                               204                  211               0.035678
                               205                  209               0.030394
                               203                  207              -0.028541
                               204                  215              -0.027653
                               204                  219              -0.018453
                               204                  213              -0.016353
                               204                  217              -0.014516
                               205                  218              -0.013079
                               204                  221               0.012021
             5   0.47198 eV
                               204                  208               0.803144
                               205                  209               0.460648
                               203                  207              -0.338501
                               203                  209              -0.101117
                               204                  210               0.072136
                               205                  207               0.052873
                               206                  210              -0.049403
                               204                  209               0.046977
                               204                  207              -0.030105
                               205                  211              -0.026514
                               204                  224              -0.015771
                               206                  212               0.015601
                               205                  208               0.013631
                               203                  215               0.013547
                               206                  209              -0.013387
                               204                  218              -0.012568
                               206                  208               0.012388
                               205                  210              -0.012288
             6   0.59975 eV
                               203                  208               0.634659
                               206                  209               0.604020
                               205                  210              -0.378584
                               206                  207              -0.157733
                               204                  207              -0.125022
                               203                  210               0.117541
                               204                  209              -0.104871
                               202                  207              -0.094649
                               205                  208              -0.054416
                               206                  211              -0.043328
                               206                  221              -0.038638
                               206                  219               0.036971
                               205                  212               0.024623
                               202                  209               0.024167
                               206                  213               0.019723
                               202                  215               0.018320
                               206                  217              -0.018279
                               204                  215               0.017032
                               203                  212               0.013632
                               206                  228              -0.013046
                               203                  207               0.012289
                               202                  211              -0.012204
                               206                  215               0.011593
                               206                  223              -0.011534
                               201                  218              -0.011037
                               206                  210              -0.010204
                               205                  230               0.010111
             7   0.62676 eV
                               203                  208               0.533169
                               204                  209              -0.500434
                               206                  209              -0.434784
                               205                  208               0.350223
                               203                  210              -0.310592
                               206                  207               0.105107
                               205                  210               0.101948
                               202                  207               0.090148
                               206                  211               0.080897
                               202                  209              -0.073566
                               205                  218              -0.033642
                               204                  211              -0.032361
                               206                  221               0.031740
                               206                  219              -0.029502
                               206                  213              -0.029478
                               203                  207               0.027864
                               202                  215              -0.026245
                               203                  209              -0.024907
                               206                  215              -0.024327
                               206                  217               0.021974
                               204                  208               0.021239
                               204                  219               0.020907
                               204                  207              -0.019536
                               201                  212              -0.016262
                               206                  210              -0.016153
                               203                  218              -0.016008
                               202                  213              -0.014806
                               206                  228               0.014524
                               201                  218               0.013959
                               195                  208               0.013947
                               206                  223               0.013847
                               203                  216               0.012934
                               204                  221              -0.012676
                               202                  211               0.012008
                               205                  224               0.011584
                               201                  208               0.011510
                               204                  217               0.011451
                               203                  220               0.011234
                               201                  210               0.010636
             8   0.64162 eV
                               203                  207              -0.509075
                               203                  209               0.493994
                               204                  210              -0.395018
                               205                  209               0.342962
                               206                  210               0.340662
                               204                  208              -0.295174
                               202                  210              -0.061523
                               202                  208              -0.056816
                               201                  209               0.038596
                               205                  215              -0.038088
                               203                  211              -0.037379
                               203                  208               0.035041
                               204                  212               0.031225
                               205                  213              -0.029715
                               205                  217              -0.024385
                               204                  209              -0.020431
                               202                  212               0.018803
                               205                  208               0.017708
                               201                  207               0.015475
                               203                  210              -0.012656
                               205                  219              -0.012455
                               204                  222              -0.012418
                               204                  214               0.012064
                               202                  218              -0.011921
                               201                  217               0.010994
                               204                  220               0.010816
                               205                  207               0.010557
                               201                  211               0.010391
                               204                  234              -0.010383
                               206                  218              -0.010186
             9   0.73001 eV
                               204                  210              -0.841151
                               203                  209              -0.473279
                               206                  210              -0.245688
                               203                  207               0.042935
                               205                  211              -0.036546
                               205                  209               0.030129
                               206                  208              -0.027607
                               202                  210               0.020751
                               203                  211              -0.015608
                               204                  212              -0.015455
                               202                  208               0.014262
                               206                  214               0.013214
                               201                  211              -0.012636
                               201                  207              -0.012086
                               201                  209              -0.010918
                               205                  207               0.010204
                               203                  210               0.010053
            10   0.89605 eV
                               206                  211              -0.581672
                               202                  207               0.382226
                               205                  210              -0.373591
                               205                  208              -0.364147
                               206                  209              -0.326062
                               206                  207               0.233045
                               204                  207              -0.142691
                               203                  210               0.108145
                               203                  208               0.097627
                               204                  211              -0.077952
                               205                  212              -0.060247
                               202                  209               0.050046
                               203                  212               0.043862
                               204                  213               0.041763
                               206                  221               0.038951
                               201                  210              -0.038169
                               206                  210               0.038084
                               205                  216              -0.034223
                               204                  215               0.031103
                               201                  212               0.029884
                               206                  219              -0.028776
                               201                  208              -0.027052
                               203                  220               0.026858
                               206                  213              -0.026694
                               202                  217               0.026635
                               204                  217               0.026515
                               204                  209               0.025918
                               205                  214               0.025534
                               206                  215              -0.023978
                               205                  220               0.022848
                               202                  211               0.022624
                               201                  216              -0.017856
                               203                  209              -0.017523
                               206                  223               0.017173
                               205                  211               0.016631
                               194                  212               0.015477
                               206                  212              -0.014879
                               203                  227               0.014849
                               203                  218               0.014310
                               202                  219               0.013785
                               203                  216              -0.013670
                               202                  223              -0.013540
                               204                  219               0.013475
                               201                  220               0.013237
                               206                  208               0.012529
                               206                  217              -0.011828
                               203                  229               0.011471
                               206                  231              -0.011094
                               205                  218              -0.010760
                               205                  230              -0.010744
                               201                  229               0.010610
                               203                  236               0.010321
                               203                  222              -0.010093
            11   0.90257 eV
                               206                  210              -0.736941
                               203                  209               0.398204
                               205                  211              -0.316500
                               205                  207               0.215543
                               201                  207              -0.194189
                               206                  208              -0.190515
                               206                  212              -0.120776
                               203                  207              -0.118113
                               206                  214               0.073250
                               205                  217              -0.067096
                               205                  213              -0.062894
                               205                  215              -0.061710
                               203                  211               0.058544
                               205                  209              -0.055066
                               201                  211              -0.042892
                               206                  218               0.036895
                               204                  208              -0.035205
                               202                  208              -0.034796
                               202                  212              -0.031488
                               205                  223               0.024815
                               206                  209              -0.022627
                               206                  211              -0.022161
                               206                  224               0.020950
                               204                  216               0.020696
                               201                  225              -0.020456
                               206                  230              -0.020455
                               205                  210              -0.019828
                               204                  212               0.019281
                               201                  215               0.018395
                               205                  208              -0.017262
                               202                  207               0.016943
                               201                  221               0.016822
                               202                  218              -0.016686
                               202                  216               0.016396
                               203                  225              -0.016235
                               199                  207              -0.015672
                               202                  227               0.014680
                               205                  212              -0.014579
                               205                  232               0.014325
                               206                  220               0.014190
                               196                  208               0.013751
                               206                  243               0.012972
                               205                  221              -0.012971
                               201                  219              -0.012958
                               203                  228              -0.012453
                               203                  221              -0.012155
                               203                  238               0.011995
                               195                  207              -0.011629
                               206                  234               0.011542
                               189                  208               0.011535
                               203                  213               0.011465
                               201                  213               0.011250
                               205                  228               0.011224
                               202                  210              -0.011180
                               197                  207              -0.011026
                               194                  207              -0.011007
                               204                  210               0.010933
                               201                  209               0.010786
                               201                  238               0.010645
                               206                  249              -0.010533
                               206                  207               0.010434
                               203                  215               0.010112
            12   0.96041 eV
                               204                  211               0.472468
                               203                  210               0.421494
                               206                  211               0.374645
                               203                  208               0.330465
                               204                  209               0.250604
                               205                  208              -0.237559
                               205                  212               0.200847
                               202                  207               0.193561
                               206                  209              -0.190127
                               205                  210               0.170868
                               206                  207               0.135163
                               203                  212              -0.115537
                               202                  209              -0.099355
                               206                  215              -0.095271
                               206                  213              -0.085719
                               206                  212              -0.067311
                               204                  207               0.064614
                               205                  218              -0.054803
                               201                  208               0.043258
                               203                  214              -0.035988
                               205                  214               0.032107
                               205                  211              -0.028583
                               204                  213               0.026207
                               204                  219              -0.026084
                               206                  219              -0.025285
                               203                  216               0.024567
                               206                  221               0.023814
                               202                  215              -0.021168
                               202                  211               0.021031
[...]
 flops    46 x    32 x    40           6575247360       0.0%    100.0%      0.0%
 flops   133 x    32 x    40           9572935680       0.0%    100.0%      0.0%
 flops   133 x    32 x    32          10345144320       0.0%    100.0%      0.0%
 flops     6 x     6 x    32          10362193920       0.0%    100.0%      0.0%
 flops    46 x    32 x    34          10669833216       0.0%    100.0%      0.0%
 flops   154 x    32 x    40          11084451840       0.0%    100.0%      0.0%
 flops   154 x    32 x    32          11978588160       0.0%    100.0%      0.0%
 flops   182 x    32 x    40          13099806720       0.0%    100.0%      0.0%
 flops   188 x    32 x    40          13531668480       0.0%    100.0%      0.0%
 flops   182 x    32 x    32          14156513280       0.0%    100.0%      0.0%
 flops   188 x    32 x    32          14623211520       0.0%    100.0%      0.0%
 flops   211 x    32 x    40          15187138560       0.0%    100.0%      0.0%
 flops   133 x    32 x    34          15534263808       0.0%    100.0%      0.0%
 flops   211 x    32 x    32          16412221440       0.0%    100.0%      0.0%
 flops   230 x    32 x    40          16554700800       0.0%    100.0%      0.0%
 flops   230 x    32 x    32          17890099200       0.0%    100.0%      0.0%
 flops   154 x    32 x    34          17987042304       0.0%    100.0%      0.0%
 flops    17 x    14 x     6          20446675200       0.0%    100.0%      0.0%
 flops     6 x    14 x    17          20446675200       0.0%    100.0%      0.0%
 flops   182 x    32 x    34          21257413632       0.0%    100.0%      0.0%
 flops   188 x    32 x    34          21958207488       0.0%    100.0%      0.0%
 flops    32 x    32 x    32          22259957760       0.0%    100.0%      0.0%
 flops    32 x    32 x    40          22870425600       0.0%    100.0%      0.0%
 flops   211 x    32 x    34          24644583936       0.0%    100.0%      0.0%
 flops   230 x    32 x    34          26863764480       0.0%    100.0%      0.0%
 flops   187 x    32 x    40          26919383040       0.0%    100.0%      0.0%
 flops   187 x    32 x    32          29090856960       0.0%    100.0%      0.0%
 flops    32 x    32 x    34          37112463360       0.0%    100.0%      0.0%
 flops    17 x    17 x    14          38167633504       0.0%    100.0%      0.0%
 flops     6 x    32 x     6          39228364800       0.0%    100.0%      0.0%
 flops   187 x    32 x    34          43682817024       0.0%    100.0%      0.0%
 flops     6 x    17 x    32          71978250240       0.0%    100.0%      0.0%
 flops    17 x     6 x    32          71978250240       0.0%    100.0%      0.0%
 flops    17 x    14 x    17         146761690880       0.0%    100.0%      0.0%
 flops     6 x    32 x    17         281572485120       0.0%    100.0%      0.0%
 flops    17 x    32 x     6         281572485120       0.0%    100.0%      0.0%
 flops    17 x    17 x    32         523441830912       0.0%    100.0%      0.0%
 flops    17 x    32 x    17        2021064726528       0.0%    100.0%      0.0%
 flops inhomo. stacks                164430918864     100.0%      0.0%      0.0%
 flops total                         4.274321E+12       3.8%     96.2%      0.0%
 flops max/rank                    148.803774E+09       4.6%     95.4%      0.0%
 matmuls inhomo. stacks                    534492     100.0%      0.0%      0.0%
 matmuls total                          315440618       0.2%     99.8%      0.0%
 number of processed stacks              28077042       1.9%     98.1%      0.0%
 average stack size                                     1.0      11.4       0.0
 marketing flops                     4.904556E+12
 -------------------------------------------------------------------------------
 # multiplications                           8972
 max memory usage/rank             743.866368E+06
 # max total images/rank                       11
 # max 3D layers                                1
 # MPI messages exchanged                59215200
 MPI messages size (bytes):
  total size                         1.537450E+12
  min size                           0.000000E+00
  max size                         152.592000E+03
  average size                      25.963770E+03
 MPI breakdown and total messages size (bytes):
             size <=      128            34962372                        0
       128 < size <=     8192             2680608              15392276256
      8192 < size <=    32768             6815520              88084517952
     32768 < size <=   131072            14157276            1344789218304
    131072 < size <=  4194304              599424              89999917056
   4194304 < size <= 16777216                   0                        0
  16777216 < size                               0                        0
 -------------------------------------------------------------------------------

 *** WARNING in dbcsr_mm.F:291 :: Using a non-square number of MPI ranks ***
 *** might lead to poor performance. Used ranks: 88 Suggested: 81 169    ***

 -------------------------------------------------------------------------------
 -                                                                             -
 -                      DBCSR MESSAGE PASSING PERFORMANCE                      -
 -                                                                             -
 -------------------------------------------------------------------------------
 ROUTINE             CALLS      AVE VOLUME [Bytes]
 MP_Bcast              115                     12.
 MP_Allreduce        41673                     14.
 MP_Alltoall         90166                  42627.
 MP_ISend          1441924                  13749.
 MP_IRecv          1450168                  13311.
 -------------------------------------------------------------------------------

 -------------------------------------------------------------------------------
 -                                                                             -
 -                                DBM STATISTICS                               -
 -                                                                             -
 -------------------------------------------------------------------------------
    M  x    N  x    K                                          COUNT     PERCENT
 -------------------------------------------------------------------------------

 -------------------------------------------------------------------------------
 -                                                                             -
 -                                GRID STATISTICS                              -
 -                                                                             -
 -------------------------------------------------------------------------------
 LP    KERNEL             BACKEND                              COUNT     PERCENT
 2     collocate general  CPU                              130789989      27.67%
 2     integrate general  CPU                              130503483      27.61%
 1     collocate general  CPU                               65549748      13.87%
 1     integrate general  CPU                               65406156      13.84%
 3     collocate general  CPU                               29630502       6.27%
 3     integrate general  CPU                               29565594       6.25%
 0     collocate general  CPU                                9357535       1.98%
 0     integrate general  CPU                                9327729       1.97%
 4     collocate general  CPU                                1288243       0.27%
 4     integrate general  CPU                                1285421       0.27%
 -------------------------------------------------------------------------------

 MEMORY| Estimated peak process memory [MiB]                                 710

 -------------------------------------------------------------------------------
 -                                                                             -
 -                         MESSAGE PASSING PERFORMANCE                         -
 -                                                                             -
 -------------------------------------------------------------------------------

 ROUTINE             CALLS      AVE VOLUME [Bytes]
 MP_Group                4
 MP_Bcast            11939                  73623.
 MP_Allreduce       223143                     70.
 MP_Sync             11173
 MP_Alltoall         27371               39767340.
 MP_SendRecv        238293                  15267.
 MP_ISendRecv       237771                  15267.
 MP_Wait            306286
 MP_comm_split         225
 MP_ISend           117609                  52509.
 MP_IRecv           126946                  48654.
 -------------------------------------------------------------------------------


 -------------------------------------------------------------------------------
 -                                                                             -
 -                           R E F E R E N C E S                               -
 -                                                                             -
 -------------------------------------------------------------------------------

 CP2K version 2023.2, the CP2K developers group (2023).
 CP2K is freely available from https://www.cp2k.org/ .

 Kuehne,Thomas D.; Iannuzzi,Marcella; Del Ben,Mauro;
 Rybkin,Vladimir V.; Seewald,Patrick; Stein,Frederick; Laino,Teodoro;
 Khaliullin,Rustam Z.; Schuett,Ole; Schiffmann,Florian; Golze,Dorothea;
 Wilhelm,Jan; Chulkov,Sergey; Bani-Hashemian,Mohammad Hossein;
 Weber,Valery; Borstnik,Urban; Taillefumier,Mathieu;
 Jakobovits,Alice Shoshana; Lazzaro,Alfio; Pabst,Hans; Mueller,Tiziano;
 Schade,Robert; Guidon,Manuel; Andermatt,Samuel; Holmberg,Nico;
 Schenter,Gregory K.; Hehn,Anna; Bussy,Augustin; Belleflamme,Fabian;
 Tabacchi,Gloria; Gloess,Andreas; Lass,Michael; Bethune,Iain;
 Mundy,Christopher J.; Plessl,Christian; Watkins,Matt;
 VandeVondele,Joost; Krack,Matthias; Hutter,Juerg.
 The Journal of Chemical Physics, 152 (19), (2020).
 CP2K: An electronic structure and molecular dynamics software package -
 Quickstep: Efficient and accurate electronic structure calculations.
 https://doi.org/10.1063/5.0007045

 Schuett, Ole; Messmer, Peter; Hutter, Juerg; VandeVondele, Joost.
 Electronic Structure Calculations on Graphics Processing Units, John
 Wiley & Sons, Ltd, 173-190 (2016).
 GPU-Accelerated Sparse Matrix-Matrix Multiplication for
 Linear Scaling Density Functional Theory.
 https://doi.org/10.1002/9781118670712.ch8

 Heinecke, A; Henry, G; Hutchinson, M; Pabst, H.
 Proceedings of Intl. Supercomputing Conference, 981-991 (2016).
 LIBXSMM: Accelerating Small Matrix Multiplications
 by Runtime Code Generation.
 https://doi.org/10.1109/SC.2016.83

 Borstnik, U; VandeVondele, J; Weber, V; Hutter, J.
 PARALLEL COMPUTING, 40 (5-6), 47-58 (2014).
 Sparse matrix multiplication: The distributed block-compressed sparse
 row library.
 https://doi.org/10.1016/j.parco.2014.03.012

 Hutter, J; Iannuzzi, M; Schiffmann, F; VandeVondele, J.
 WIREs Comput Mol Sci., 4 (1), 15-25 (2014).
 CP2K: atomistic simulations of condensed matter systems.
 https://doi.org/10.1002/wcms.1159

 Krack, M.
 THEORETICAL CHEMISTRY ACCOUNTS, 114 (1-3), 145-152 (2005).
 Pseudopotentials for H to Kr optimized for gradient-corrected
 exchange-correlation functionals.
 https://doi.org/10.1007/s00214-005-0655-y

 VandeVondele, J; Krack, M; Mohamed, F; Parrinello, M; Chassaing, T;
 Hutter, J. COMPUTER PHYSICS COMMUNICATIONS, 167 (2), 103-128 (2005).
 QUICKSTEP: Fast and accurate density functional calculations using a
 mixed Gaussian and plane waves approach.
 https://doi.org/10.1016/j.cpc.2004.12.014

 Frigo, M; Johnson, SG.
 PROCEEDINGS OF THE IEEE, 93 (2), 216-231 (2005).
 The design and implementation of FFTW3.
 https://doi.org/10.1109/JPROC.2004.840301

 Iannuzzi, M; Chassaing, T; Wallman, T; Hutter, J.
 CHIMIA, 59 (7-8), 499-503 (2005).
 Ground and excited state density functional calculations with the
 Gaussian and augmented-plane-wave method.
 https://doi.org/10.2533/000942905777676164

 VandeVondele, J; Hutter, J.
 JOURNAL OF CHEMICAL PHYSICS, 118 (10), 4365-4369 (2003).
 An efficient orbital transformation method for electronic structure
 calculations.
 https://doi.org/10.1063/1.1543154

 Hartwigsen, C; Goedecker, S; Hutter, J.
 PHYSICAL REVIEW B, 58 (7), 3641-3662 (1998).
 Relativistic separable dual-space Gaussian pseudopotentials from H to Rn.
 https://doi.org/10.1103/PhysRevB.58.3641

 Lippert, G; Hutter, J; Parrinello, M.
 MOLECULAR PHYSICS, 92 (3), 477-487 (1997).
 A hybrid Gaussian and plane wave density functional scheme.
 https://doi.org/10.1080/002689797170220

 Perdew, JP; Burke, K; Ernzerhof, M.
 PHYSICAL REVIEW LETTERS, 77 (18), 3865-3868 (1996).
 Generalized gradient approximation made simple.
 https://doi.org/10.1103/PhysRevLett.77.3865

 Goedecker, S; Teter, M; Hutter, J.
 PHYSICAL REVIEW B, 54 (3), 1703-1710 (1996).
 Separable dual-space Gaussian pseudopotentials.
 https://doi.org/10.1103/PhysRevB.54.1703


 -------------------------------------------------------------------------------
 -                                                                             -
 -                                T I M I N G                                  -
 -                                                                             -
 -------------------------------------------------------------------------------
 SUBROUTINE                       CALLS  ASD         SELF TIME        TOTAL TIME
                                MAXIMUM       AVERAGE  MAXIMUM  AVERAGE  MAXIMUM
 CP2K                                 1  1.0    0.100    0.113  279.554  279.555
 qs_energies                          1  2.0    0.015    0.015  279.106  279.117
 qs_energies_properties               1  3.0    0.000    0.000  209.131  209.135
 tddfpt                               1  4.0    0.000    0.001  209.131  209.135
 tddfpt_energies                      1  5.0    0.002    0.004  208.547  208.558
 tddfpt_davidson_solver               2  6.0    0.004    0.007  205.825  205.826
 tddfpt_compute_Aop_evects            7  7.0    0.000    0.000  180.846  180.853
 fhxc_kernel                          7  8.0    0.022    0.029  175.129  175.136
 integrate_v_rspace                 911  9.0    0.017    0.020   84.182   84.339
 qs_rho_update_rho_low              913  8.1    0.004    0.011   83.444   84.022
 calculate_rho_elec                 913  9.1    0.081    0.086   83.440   84.016
 scf_env_do_scf                       1  3.0    0.004    0.008   68.889   68.890
 scf_env_do_scf_inner_loop          211  4.0    0.011    0.069   67.449   67.452
 grid_integrate_task_list           911 10.0   58.082   63.542   58.082   63.542
 grid_collocate_task_list           913 10.1   56.615   61.916   56.615   61.916
 dbcsr_multiply_generic            8972 10.3    0.300    0.353   53.363   55.367
 pw_transfer                      17324 11.2    0.469    0.494   33.933   34.134
 multiply_cannon                   8972 11.3    0.769    0.917   30.943   34.017
 fft_wrap_pw1pw2                  15502 12.3    0.032    0.035   33.423   33.627
 rs_pw_transfer                    7297 11.0    0.031    0.039   26.647   30.882
 cp_dbcsr_sm_fm_multiply           2714  8.5    0.036    0.041   28.042   29.145
 density_rs2pw                      913 10.1    0.019    0.024   24.309   28.661
 multiply_cannon_loop              8972 12.3    1.815    2.333   24.845   27.767
 mp_waitall_1                   1334480 14.1   21.357   26.386   21.357   26.386
 fft_wrap_pw1pw2_200              10030 13.5    1.391    1.759   25.319   25.520
 qs_scf_new_mos                     211  5.0    0.001    0.001   25.093   25.240
 qs_scf_loop_do_ot                  211  6.0    0.001    0.001   25.092   25.239
 qs_ks_update_qs_env                213  5.0    0.002    0.002   24.907   25.037
 rebuild_ks_matrix                  211  6.0    0.000    0.001   24.872   25.002
 qs_ks_build_kohn_sham_matrix       211  7.0    0.025    0.033   24.871   25.001
 ot_scf_mini                        211  7.0    0.004    0.006   24.176   24.313
 cp_dbcsr_sm_fm_multiply_core      2714  9.5    0.003    0.005   21.509   23.129
 fft3d_pb                         10030 14.5    5.965    6.789   22.203   22.629
 multiply_cannon_metrocomm3      394768 13.3    0.292    0.316   16.610   21.256
 mp_waitany                       56572 13.0   13.923   18.446   13.923   18.446
 sum_up_and_integrate               211  8.0    0.015    0.021   18.022   18.044
 mp_alltoall_z22v                 25532 16.4   16.082   18.003   16.082   18.003
 potential_pw2rs                    911 10.0    0.018    0.020   17.582   17.680
 xc_pw_derive                      5469 11.0    0.009    0.011   15.591   15.746
 make_m2s                         17944 11.3    0.236    0.272   14.700   15.463
 tddfpt_apply_xc_analytic           700  9.0    0.052    0.056   14.985   15.058
 rs_pw_transfer_RS2PW_200           914 12.1    0.506    0.743   10.150   14.512
 mp_alltoall_d11v                 35310 11.9    9.899   14.459    9.899   14.459
 cp_dbcsr_plus_fm_fm_t_native       701  9.0    0.006    0.007   13.859   14.381
 make_images                      17944 12.3    0.694    0.953   13.215   13.859
 rs_gather_matrices                 911 10.0    0.124    0.205    8.501   13.475
 ot_mini                            211  8.0    0.007    0.007   12.570   12.726
 tddfpt_orthonormalize_psi1_psi       8  6.9    0.100    0.106   11.073   11.099
 parallel_gemm_fm                  2420  7.9    0.001    0.001   10.324   10.525
 parallel_gemm_fm_cosma            2420  8.9   10.323   10.523   10.323   10.523
 xc_pw_divergence                   911 10.8    0.005    0.006   10.274   10.373
 make_images_sizes                17944 13.3    0.010    0.012    9.163    9.800
 mp_alltoall_i44                  17944 14.3    9.152    9.789    9.152    9.789
 qs_ot_get_p                        213  8.0    0.001    0.001    8.739    8.911
 qs_ot_get_derivative               211  9.0    0.001    0.001    8.678    8.806
 xc_calc_2nd_deriv_analytical       700 10.0    0.200    0.218    8.650    8.712
 multiply_cannon_multrec         394768 13.3    3.430    8.596    3.457    8.622
 mp_alltoall_i22                  11162 11.7    6.543    8.481    6.543    8.481
 tddfpt_compute_residual_vects        5  7.0    0.008    0.009    7.802    8.180
 fft3d_ps                          5472 14.0    0.288    0.456    7.624    8.139
 mp_sum_l                         39003 11.2    6.364    7.646    6.364    7.646
 cube_transpose_1                  8204 15.0    0.288    0.493    6.332    7.112
 dbcsr_complete_redistribute       7997 10.7    0.296    0.532    5.644    6.768
 qs_ot_get_derivative_diag          209 10.0    0.003    0.004    6.585    6.723
 copy_dbcsr_to_fm                  2956  9.6    0.019    0.024    4.696    6.508
 rs_pw_transfer_PW2RS_200           911 12.0    1.090    1.520    5.911    6.362
 mp_sync                          11173 16.0    5.773    6.260    5.773    6.260
 qs_ot_p2m_diag                     211  9.0    0.014    0.048    6.127    6.190
 tddfpt_apply_energy_diff             7  8.0    0.004    0.004    5.717    5.717
 -------------------------------------------------------------------------------

 The number of warnings for this run is : 1

 -------------------------------------------------------------------------------
  **** **** ******  **  PROGRAM ENDED AT                 2023-12-23 16:47:34.109
 ***** ** ***  *** **   PROGRAM RAN ON                              d8911a8d868a
 **    ****   ******    PROGRAM RAN BY                                 <unknown>
 ***** **    ** ** **   PROGRAM PROCESS ID                                   538
  **** **  *******  **  PROGRAM STOPPED IN                                  /mnt

