
     Program PWSCF v.6.7MaX starts on 16Jan2024 at  6:11:40

     This program is part of the open-source Quantum ESPRESSO suite
     for quantum simulation of materials; please cite
         "P. Giannozzi et al., J. Phys.:Condens. Matter 21 395502 (2009);
         "P. Giannozzi et al., J. Phys.:Condens. Matter 29 465901 (2017);
          URL http://www.quantum-espresso.org",
     in publications or presentations arising from this work. More details at
     http://www.quantum-espresso.org/quote

     Parallel version (MPI), running on   176 processors

     MPI processes distributed on     1 nodes
     R & G space division:  proc/nbgrp/npool/nimage =     176
     Reading input from iso4amp15_pbe_relax.in

     Current dimensions of program PWSCF are:
     Max number of different atomic species (ntypx) = 10
     Max number of k-points (npk) =  40000
     Max angular momentum in pseudopotentials (lmaxx) =  3

     IMPORTANT: XC functional enforced from input :
     Exchange-correlation= PBE
                           (   1   4   3   4   0   0   0)
     Any further DFT definition will be discarded
     Please, verify this is what you really want


     gamma-point specific algorithms are used

     Subspace diagonalization in iterative solution of the eigenvalue problem:
     one sub-group per band group will be used
     scalapack distributed-memory algorithm (size of sub-group: 13* 13 procs)


     Parallelization info
     --------------------
     sticks:   dense  smooth     PW     G-vecs:    dense   smooth      PW
     Min         725     290     72               195442    49446    6180
     Max         728     292     74               195460    49464    6194
     Sum      127869   51165  12785             34398863  8704035 1088527



     bravais-lattice index     =            0
     lattice parameter (alat)  =      56.6918  a.u.
     unit-cell volume          =  182205.0314 (a.u.)^3
     number of atoms/cell      =           49
     number of atomic types    =            4
     number of electrons       =       140.00
     number of Kohn-Sham states=           70
     kinetic-energy cutoff     =      50.0000  Ry
     charge density cutoff     =     500.0000  Ry
     scf convergence threshold =      1.0E-10
     mixing beta               =       0.7000
     number of iterations used =            8  local-TF  mixing
     energy convergence thresh.=      1.0E-04
     force convergence thresh. =      1.0E-03
     Exchange-correlation= PBE
                           (   1   4   3   4   0   0   0)
     nstep                     =           50


     celldm(1)=  56.691784  celldm(2)=   0.000000  celldm(3)=   0.000000
     celldm(4)=   0.000000  celldm(5)=   0.000000  celldm(6)=   0.000000

     crystal axes: (cart. coord. in units of alat)
               a(1) = (   1.000000   0.000000   0.000000 )
               a(2) = (   0.000000   1.000000   0.000000 )
               a(3) = (   0.000000   0.000000   1.000000 )

     reciprocal axes: (cart. coord. in units 2 pi/alat)
               b(1) = (  1.000000  0.000000  0.000000 )
               b(2) = (  0.000000  1.000000  0.000000 )
               b(3) = (  0.000000  0.000000  1.000000 )


     PseudoPot. # 1 for O  read from file:
     /usr/share/espresso/pseudo/O.pbe-n-rrkjus_psl.1.0.0.UPF
     MD5 check sum: 91400c9766925bcf19f520983a725ff0
     Pseudo is Ultrasoft + core correction, Zval =  6.0
     Generated using &quot;atomic&quot; code by A. Dal Corso  v.6.3MaX
     Using radial grid of 1095 points,  4 beta functions with:
                l(1) =   0
                l(2) =   0
                l(3) =   1
                l(4) =   1
     Q(r) pseudized with 0 coefficients


     PseudoPot. # 2 for N  read from file:
     /usr/share/espresso/pseudo/N.pbe-n-rrkjus_psl.1.0.0.UPF
     MD5 check sum: ada94e3ed05223de5319d0572dc76806
     Pseudo is Ultrasoft + core correction, Zval =  5.0
     Generated using &quot;atomic&quot; code by A. Dal Corso  v.6.3MaX
     Using radial grid of 1085 points,  4 beta functions with:
                l(1) =   0
                l(2) =   0
                l(3) =   1
                l(4) =   1
     Q(r) pseudized with 0 coefficients


     PseudoPot. # 3 for C  read from file:
     /usr/share/espresso/pseudo/C.pbe-n-rrkjus_psl.1.0.0.UPF
     MD5 check sum: 1fdd950c42eb37d8afe3dd2f8d12311e
     Pseudo is Ultrasoft + core correction, Zval =  4.0
     Generated using &quot;atomic&quot; code by A. Dal Corso  v.6.3MaX
     Using radial grid of 1073 points,  4 beta functions with:
                l(1) =   0
                l(2) =   0
                l(3) =   1
                l(4) =   1
     Q(r) pseudized with 0 coefficients


     PseudoPot. # 4 for H  read from file:
     /usr/share/espresso/pseudo/H.pbe-rrkjus_psl.1.0.0.UPF
     MD5 check sum: 3f4114867bd07edc7f1424d066fc1888
     Pseudo is Ultrasoft, Zval =  1.0
     Generated using &quot;atomic&quot; code by A. Dal Corso  v.6.3MaX
     Using radial grid of  929 points,  2 beta functions with:
                l(1) =   0
                l(2) =   0
     Q(r) pseudized with 0 coefficients


     atomic species   valence    mass     pseudopotential
        O              6.00    16.00000     O ( 1.00)
        N              5.00    14.00000     N ( 1.00)
        C              4.00    12.00000     C ( 1.00)
        H              1.00     1.00000     H ( 1.00)

     No symmetry found



   Cartesian axes

     site n.     atom                  positions (alat units)
         1           O   tau(   1) = (   0.5498061   0.4438452   0.4112268  )
         2           O   tau(   2) = (   0.6974612   0.2618049   0.4606098  )
         3           O   tau(   3) = (   0.2836813   0.6945442   0.4897427  )
         4           N   tau(   4) = (   0.4522220   0.5955554   0.5223851  )
         5           C   tau(   5) = (   0.6564017   0.3746481   0.5285032  )
         6           H   tau(   6) = (   0.6456189   0.4044436   0.5457683  )
         7           C   tau(   7) = (   0.6870631   0.3466804   0.5481612  )
         8           H   tau(   8) = (   0.7000808   0.3545528   0.5809377  )
         9           C   tau(   9) = (   0.7019270   0.3082577   0.5267532  )
        10           H   tau(  10) = (   0.7260198   0.2869662   0.5430590  )
        11           C   tau(  11) = (   0.6855688   0.2980763   0.4846303  )
        12           C   tau(  12) = (   0.6547197   0.3263852   0.4645745  )
        13           H   tau(  13) = (   0.6424427   0.3179288   0.4316578  )
        14           C   tau(  14) = (   0.6396881   0.3646205   0.4860259  )
        15           C   tau(  15) = (   0.6072198   0.3924067   0.4630408  )
        16           H   tau(  16) = (   0.5990979   0.3828697   0.4290201  )
        17           C   tau(  17) = (   0.5860827   0.4282667   0.4790604  )
        18           H   tau(  18) = (   0.5920851   0.4399287   0.5126648  )
        19           C   tau(  19) = (   0.5545078   0.4530767   0.4505205  )
        20           C   tau(  20) = (   0.5285173   0.4903119   0.4706061  )
        21           C   tau(  21) = (   0.5063671   0.5193244   0.4417981  )
        22           H   tau(  22) = (   0.5097041   0.5137797   0.4062708  )
        23           C   tau(  23) = (   0.4811679   0.5541794   0.4580166  )
        24           H   tau(  24) = (   0.4653270   0.5772650   0.4351739  )
        25           C   tau(  25) = (   0.4768790   0.5607559   0.5040096  )
        26           C   tau(  26) = (   0.4995536   0.5322525   0.5329291  )
        27           H   tau(  27) = (   0.4966147   0.5378299   0.5684839  )
        28           C   tau(  28) = (   0.5247202   0.4974037   0.5164243  )
        29           H   tau(  29) = (   0.5410610   0.4753008   0.5398142  )
        30           C   tau(  30) = (   0.4149603   0.6060961   0.5051960  )
        31           H   tau(  31) = (   0.4007367   0.5871313   0.4772984  )
        32           C   tau(  32) = (   0.3880183   0.6433157   0.5212846  )
        33           C   tau(  33) = (   0.3483445   0.6527907   0.4994747  )
        34           H   tau(  34) = (   0.3376053   0.6329890   0.4711941  )
        35           C   tau(  35) = (   0.3214900   0.6879948   0.5134419  )
        36           C   tau(  36) = (   0.3345863   0.7136124   0.5497500  )
        37           H   tau(  37) = (   0.3142941   0.7410659   0.5613506  )
        38           C   tau(  38) = (   0.3744311   0.7038153   0.5715289  )
        39           H   tau(  39) = (   0.3842669   0.7240343   0.5998160  )
        40           C   tau(  40) = (   0.4012533   0.6691829   0.5577404  )
        41           H   tau(  41) = (   0.4322499   0.6613840   0.5744653  )
        42           C   tau(  42) = (   0.7287869   0.2323917   0.4795733  )
        43           H   tau(  43) = (   0.7336568   0.2058467   0.4553270  )
        44           H   tau(  44) = (   0.7164596   0.2180097   0.5107767  )
        45           H   tau(  45) = (   0.7607014   0.2490019   0.4857399  )
        46           C   tau(  46) = (   0.2549947   0.7290924   0.5035384  )
        47           H   tau(  47) = (   0.2267599   0.7284479   0.4807669  )
        48           H   tau(  48) = (   0.2713145   0.7616765   0.5014781  )
        49           H   tau(  49) = (   0.2430696   0.7237185   0.5376147  )

     number of k points=     1
                       cart. coord. in units 2pi/alat
        k(    1) = (   0.0000000   0.0000000   0.0000000), wk =   2.0000000

     Dense  grid: 17199432 G-vectors     FFT dimensions: ( 405, 405, 405)

     Smooth grid:  4352018 G-vectors     FFT dimensions: ( 256, 256, 256)

     Estimated max dynamical RAM per process >     269.98 MB

     Estimated total dynamical RAM >      46.40 GB

     Initial potential from superposition of free atoms

     starting charge  139.99879, renormalised to  140.00000

     negative rho (up, down):  1.017E-02 0.000E+00
     Starting wfcs are  133 randomized atomic wfcs

     total cpu time spent up to now is       14.6 secs

     Self-consistent Calculation

     iteration #  1     ecut=    50.00 Ry     beta= 0.70
     CG style diagonalization
     ethr =  1.00E-02,  avg # of iterations =  3.0

     negative rho (up, down):  6.763E-03 0.000E+00

     total cpu time spent up to now is       19.9 secs

     total energy              =    -440.01037848 Ry
     estimated scf accuracy    <       4.38808603 Ry

     iteration #  2     ecut=    50.00 Ry     beta= 0.70
     CG style diagonalization
     ethr =  3.13E-03,  avg # of iterations =  3.7

     negative rho (up, down):  1.373E-02 0.000E+00

     total cpu time spent up to now is       24.9 secs

     total energy              =    -439.71744093 Ry
     estimated scf accuracy    <       1.89180059 Ry

     iteration #  3     ecut=    50.00 Ry     beta= 0.70
     CG style diagonalization
     ethr =  1.35E-03,  avg # of iterations =  3.8

     negative rho (up, down):  2.987E-03 0.000E+00

     total cpu time spent up to now is       30.2 secs

     total energy              =    -439.98226179 Ry
     estimated scf accuracy    <       0.36810598 Ry

     iteration #  4     ecut=    50.00 Ry     beta= 0.70
     CG style diagonalization
     ethr =  2.63E-04,  avg # of iterations =  5.2

     negative rho (up, down):  3.024E-03 0.000E+00

     total cpu time spent up to now is       37.1 secs

     total energy              =    -440.34952897 Ry
     estimated scf accuracy    <       0.35761442 Ry

     iteration #  5     ecut=    50.00 Ry     beta= 0.70
     CG style diagonalization
     ethr =  2.55E-04,  avg # of iterations =  3.4

     negative rho (up, down):  6.279E-02 0.000E+00

     total cpu time spent up to now is       41.8 secs

     total energy              =    -440.31408050 Ry
     estimated scf accuracy    <       0.17849971 Ry

     iteration #  6     ecut=    50.00 Ry     beta= 0.70
     CG style diagonalization
     ethr =  1.27E-04,  avg # of iterations =  4.4

     negative rho (up, down):  1.137E-01 0.000E+00

     total cpu time spent up to now is       47.8 secs

     total energy              =    -440.36451870 Ry
     estimated scf accuracy    <       0.12950916 Ry

     iteration #  7     ecut=    50.00 Ry     beta= 0.70
     CG style diagonalization
     ethr =  9.25E-05,  avg # of iterations =  4.5

     negative rho (up, down):  1.090E-01 0.000E+00

     total cpu time spent up to now is       54.0 secs

     total energy              =    -440.39074773 Ry
     estimated scf accuracy    <       0.23780122 Ry

     iteration #  8     ecut=    50.00 Ry     beta= 0.70
     CG style diagonalization
     ethr =  9.25E-05,  avg # of iterations =  3.0

     negative rho (up, down):  2.173E-01 0.000E+00

     total cpu time spent up to now is       58.2 secs

     total energy              =    -440.29261235 Ry
     estimated scf accuracy    <       0.18059144 Ry

     iteration #  9     ecut=    50.00 Ry     beta= 0.70
     CG style diagonalization
     ethr =  9.25E-05,  avg # of iterations =  4.0

     negative rho (up, down):  4.057E-01 0.000E+00

     total cpu time spent up to now is       63.7 secs

     total energy              =    -440.33972406 Ry
     estimated scf accuracy    <       0.04965605 Ry

     iteration # 10     ecut=    50.00 Ry     beta= 0.70
     CG style diagonalization
     ethr =  3.55E-05,  avg # of iterations =  5.8

     negative rho (up, down):  4.178E-01 0.000E+00

     total cpu time spent up to now is       71.5 secs

     total energy              =    -440.38284300 Ry
     estimated scf accuracy    <       0.26241572 Ry

     iteration # 11     ecut=    50.00 Ry     beta= 0.70
     CG style diagonalization
     ethr =  3.55E-05,  avg # of iterations =  3.6

     negative rho (up, down):  4.877E-01 0.000E+00

     total cpu time spent up to now is       76.5 secs

     total energy              =    -440.28341918 Ry
     estimated scf accuracy    <       0.16453969 Ry

     iteration # 12     ecut=    50.00 Ry     beta= 0.70
     CG style diagonalization
     ethr =  3.55E-05,  avg # of iterations =  4.4

     negative rho (up, down):  4.973E-01 0.000E+00

     total cpu time spent up to now is       82.5 secs

     total energy              =    -440.36258571 Ry
     estimated scf accuracy    <       0.04023345 Ry

     iteration # 13     ecut=    50.00 Ry     beta= 0.70
     CG style diagonalization
     ethr =  2.87E-05,  avg # of iterations =  5.9

     negative rho (up, down):  4.535E-01 0.000E+00

     total cpu time spent up to now is       90.4 secs

     total energy              =    -440.46315707 Ry
     estimated scf accuracy    <       0.36989240 Ry

     iteration # 14     ecut=    50.00 Ry     beta= 0.70
     CG style diagonalization
     ethr =  2.87E-05,  avg # of iterations =  3.4

     negative rho (up, down):  4.908E-01 0.000E+00

     total cpu time spent up to now is       95.1 secs

     total energy              =    -440.39333450 Ry
     estimated scf accuracy    <       0.36626837 Ry

     iteration # 15     ecut=    50.00 Ry     beta= 0.70
     CG style diagonalization
     ethr =  2.87E-05,  avg # of iterations =  3.3

     negative rho (up, down):  5.384E-01 0.000E+00

     total cpu time spent up to now is       99.7 secs

     total energy              =    -440.28561854 Ry
     estimated scf accuracy    <       0.23917598 Ry

     iteration # 16     ecut=    50.00 Ry     beta= 0.70
     CG style diagonalization
     ethr =  2.87E-05,  avg # of iterations =  4.8

     negative rho (up, down):  5.466E-01 0.000E+00

     total cpu time spent up to now is      106.2 secs

     total energy              =    -440.31358546 Ry
     estimated scf accuracy    <       0.02608533 Ry

     iteration # 17     ecut=    50.00 Ry     beta= 0.70
     CG style diagonalization
     ethr =  1.86E-05,  avg # of iterations =  5.3

     negative rho (up, down):  5.249E-01 0.000E+00

     total cpu time spent up to now is      113.3 secs

     total energy              =    -440.34728669 Ry
     estimated scf accuracy    <       0.05091221 Ry

     iteration # 18     ecut=    50.00 Ry     beta= 0.70
     CG style diagonalization
     ethr =  1.86E-05,  avg # of iterations =  3.9

     negative rho (up, down):  4.995E-01 0.000E+00

     total cpu time spent up to now is      118.7 secs

     total energy              =    -440.34940625 Ry
     estimated scf accuracy    <       0.01625877 Ry

     iteration # 19     ecut=    50.00 Ry     beta= 0.70
     CG style diagonalization
     ethr =  1.16E-05,  avg # of iterations =  3.4

     negative rho (up, down):  4.502E-01 0.000E+00

     total cpu time spent up to now is      123.4 secs

     total energy              =    -440.34749695 Ry
     estimated scf accuracy    <       0.00888623 Ry

     iteration # 20     ecut=    50.00 Ry     beta= 0.70
     CG style diagonalization
     ethr =  6.35E-06,  avg # of iterations =  4.3

     negative rho (up, down):  3.677E-01 0.000E+00

     total cpu time spent up to now is      129.2 secs

     total energy              =    -440.34968666 Ry
     estimated scf accuracy    <       0.00439006 Ry

     iteration # 21     ecut=    50.00 Ry     beta= 0.70
     CG style diagonalization
     ethr =  3.14E-06,  avg # of iterations =  4.6

     negative rho (up, down):  3.224E-01 0.000E+00

     total cpu time spent up to now is      135.5 secs

     total energy              =    -440.35031059 Ry
     estimated scf accuracy    <       0.00891330 Ry

     iteration # 22     ecut=    50.00 Ry     beta= 0.70
     CG style diagonalization
     ethr =  3.14E-06,  avg # of iterations =  3.5

     negative rho (up, down):  2.715E-01 0.000E+00

     total cpu time spent up to now is      140.4 secs

     total energy              =    -440.34795118 Ry
     estimated scf accuracy    <       0.00619335 Ry

     iteration # 23     ecut=    50.00 Ry     beta= 0.70
     CG style diagonalization
     ethr =  3.14E-06,  avg # of iterations =  3.3

     negative rho (up, down):  2.119E-01 0.000E+00

     total cpu time spent up to now is      145.1 secs

     total energy              =    -440.34726729 Ry
     estimated scf accuracy    <       0.00232032 Ry

     iteration # 24     ecut=    50.00 Ry     beta= 0.70
     CG style diagonalization
     ethr =  1.66E-06,  avg # of iterations =  4.5

     negative rho (up, down):  1.876E-01 0.000E+00

     total cpu time spent up to now is      151.1 secs

     total energy              =    -440.34788390 Ry
     estimated scf accuracy    <       0.00119233 Ry

     iteration # 25     ecut=    50.00 Ry     beta= 0.70
     CG style diagonalization
     ethr =  8.52E-07,  avg # of iterations =  3.9

     negative rho (up, down):  1.653E-01 0.000E+00

     total cpu time spent up to now is      156.4 secs

     total energy              =    -440.34791951 Ry
     estimated scf accuracy    <       0.00090295 Ry

     iteration # 26     ecut=    50.00 Ry     beta= 0.70
     CG style diagonalization
     ethr =  6.45E-07,  avg # of iterations =  3.2

     negative rho (up, down):  1.258E-01 0.000E+00

     total cpu time spent up to now is      160.9 secs

     total energy              =    -440.34761620 Ry
     estimated scf accuracy    <       0.00063360 Ry

     iteration # 27     ecut=    50.00 Ry     beta= 0.70
     CG style diagonalization
     ethr =  4.53E-07,  avg # of iterations =  3.7

     negative rho (up, down):  1.090E-01 0.000E+00

     total cpu time spent up to now is      166.0 secs

     total energy              =    -440.34758635 Ry
     estimated scf accuracy    <       0.00044881 Ry

     iteration # 28     ecut=    50.00 Ry     beta= 0.70
     CG style diagonalization
     ethr =  3.21E-07,  avg # of iterations =  3.7

     negative rho (up, down):  1.032E-01 0.000E+00

     total cpu time spent up to now is      171.2 secs

     total energy              =    -440.34746152 Ry
     estimated scf accuracy    <       0.00045722 Ry

     iteration # 29     ecut=    50.00 Ry     beta= 0.70
     CG style diagonalization
     ethr =  3.21E-07,  avg # of iterations =  3.2

     negative rho (up, down):  8.219E-02 0.000E+00

     total cpu time spent up to now is      175.6 secs

     total energy              =    -440.34732171 Ry
     estimated scf accuracy    <       0.00023072 Ry

     iteration # 30     ecut=    50.00 Ry     beta= 0.70
     CG style diagonalization
     ethr =  1.65E-07,  avg # of iterations =  4.5

     negative rho (up, down):  6.936E-02 0.000E+00

     total cpu time spent up to now is      181.8 secs

     total energy              =    -440.34737887 Ry
     estimated scf accuracy    <       0.00026070 Ry

     iteration # 31     ecut=    50.00 Ry     beta= 0.70
     CG style diagonalization
     ethr =  1.65E-07,  avg # of iterations =  3.5

     negative rho (up, down):  5.270E-02 0.000E+00

     total cpu time spent up to now is      186.6 secs

     total energy              =    -440.34741296 Ry
     estimated scf accuracy    <       0.00014983 Ry

     iteration # 32     ecut=    50.00 Ry     beta= 0.70
     CG style diagonalization
     ethr =  1.07E-07,  avg # of iterations =  4.0

     negative rho (up, down):  4.458E-02 0.000E+00

     total cpu time spent up to now is      192.1 secs

     total energy              =    -440.34744591 Ry
     estimated scf accuracy    <       0.00008775 Ry

     iteration # 33     ecut=    50.00 Ry     beta= 0.70
     CG style diagonalization
     ethr =  6.27E-08,  avg # of iterations =  4.1

     negative rho (up, down):  3.643E-02 0.000E+00

     total cpu time spent up to now is      197.7 secs

     total energy              =    -440.34744029 Ry
     estimated scf accuracy    <       0.00009039 Ry

     iteration # 34     ecut=    50.00 Ry     beta= 0.70
     CG style diagonalization
     ethr =  6.27E-08,  avg # of iterations =  3.3

     negative rho (up, down):  2.540E-02 0.000E+00

     total cpu time spent up to now is      202.4 secs

     total energy              =    -440.34745883 Ry
     estimated scf accuracy    <       0.00002967 Ry

     iteration # 35     ecut=    50.00 Ry     beta= 0.70
     CG style diagonalization
     ethr =  2.12E-08,  avg # of iterations =  5.6

     negative rho (up, down):  2.787E-02 0.000E+00

     total cpu time spent up to now is      209.9 secs

     total energy              =    -440.34748033 Ry
     estimated scf accuracy    <       0.00013263 Ry

     iteration # 36     ecut=    50.00 Ry     beta= 0.70
     CG style diagonalization
     ethr =  2.12E-08,  avg # of iterations =  4.1

     negative rho (up, down):  2.785E-02 0.000E+00

     total cpu time spent up to now is      215.6 secs

     total energy              =    -440.34748007 Ry
     estimated scf accuracy    <       0.00004660 Ry

     iteration # 37     ecut=    50.00 Ry     beta= 0.70
     CG style diagonalization
     ethr =  2.12E-08,  avg # of iterations =  3.8

     negative rho (up, down):  2.447E-02 0.000E+00

     total cpu time spent up to now is      220.8 secs

     total energy              =    -440.34748231 Ry
     estimated scf accuracy    <       0.00001391 Ry

     iteration # 38     ecut=    50.00 Ry     beta= 0.70
     CG style diagonalization
     ethr =  9.94E-09,  avg # of iterations =  4.7

     negative rho (up, down):  2.242E-02 0.000E+00

     total cpu time spent up to now is      227.2 secs

     total energy              =    -440.34748747 Ry
     estimated scf accuracy    <       0.00001398 Ry

     iteration # 39     ecut=    50.00 Ry     beta= 0.70
     CG style diagonalization
     ethr =  9.94E-09,  avg # of iterations =  3.7

     negative rho (up, down):  2.167E-02 0.000E+00

     total cpu time spent up to now is      232.4 secs

     total energy              =    -440.34748562 Ry
     estimated scf accuracy    <       0.00001761 Ry

     iteration # 40     ecut=    50.00 Ry     beta= 0.70
     CG style diagonalization
     ethr =  9.94E-09,  avg # of iterations =  3.2

     negative rho (up, down):  1.855E-02 0.000E+00

     total cpu time spent up to now is      236.8 secs

     total energy              =    -440.34748106 Ry
     estimated scf accuracy    <       0.00001036 Ry

     iteration # 41     ecut=    50.00 Ry     beta= 0.70
     CG style diagonalization
     ethr =  7.40E-09,  avg # of iterations =  3.6

     negative rho (up, down):  1.683E-02 0.000E+00

     total cpu time spent up to now is      241.8 secs

     total energy              =    -440.34748808 Ry
     estimated scf accuracy    <       0.00000240 Ry

     iteration # 42     ecut=    50.00 Ry     beta= 0.70
     CG style diagonalization
     ethr =  1.71E-09,  avg # of iterations =  5.2

     negative rho (up, down):  1.658E-02 0.000E+00

     total cpu time spent up to now is      248.9 secs

     total energy              =    -440.34749217 Ry
     estimated scf accuracy    <       0.00000800 Ry

     iteration # 43     ecut=    50.00 Ry     beta= 0.70
     CG style diagonalization
     ethr =  1.71E-09,  avg # of iterations =  3.6

     negative rho (up, down):  1.625E-02 0.000E+00

     total cpu time spent up to now is      253.8 secs

     total energy              =    -440.34749191 Ry
     estimated scf accuracy    <       0.00000625 Ry

     iteration # 44     ecut=    50.00 Ry     beta= 0.70
     CG style diagonalization
     ethr =  1.71E-09,  avg # of iterations =  4.1

     negative rho (up, down):  1.529E-02 0.000E+00

     total cpu time spent up to now is      259.5 secs

     total energy              =    -440.34749586 Ry
     estimated scf accuracy    <       0.00000127 Ry

     iteration # 45     ecut=    50.00 Ry     beta= 0.70
     CG style diagonalization
     ethr =  9.04E-10,  avg # of iterations =  5.0

     negative rho (up, down):  1.485E-02 0.000E+00

     total cpu time spent up to now is      266.4 secs

     total energy              =    -440.34749616 Ry
     estimated scf accuracy    <       0.00000449 Ry

     iteration # 46     ecut=    50.00 Ry     beta= 0.70
     CG style diagonalization
     ethr =  9.04E-10,  avg # of iterations =  4.1

     negative rho (up, down):  1.437E-02 0.000E+00

     total cpu time spent up to now is      272.0 secs

     total energy              =    -440.34749600 Ry
     estimated scf accuracy    <       0.00000141 Ry

     iteration # 47     ecut=    50.00 Ry     beta= 0.70
     CG style diagonalization
     ethr =  9.04E-10,  avg # of iterations =  5.3

     negative rho (up, down):  1.426E-02 0.000E+00

     total cpu time spent up to now is      279.1 secs

     total energy              =    -440.34749729 Ry
     estimated scf accuracy    <       0.00000268 Ry

     iteration # 48     ecut=    50.00 Ry     beta= 0.70
     CG style diagonalization
     ethr =  9.04E-10,  avg # of iterations =  3.7

     negative rho (up, down):  1.416E-02 0.000E+00

     total cpu time spent up to now is      284.2 secs

     total energy              =    -440.34749757 Ry
     estimated scf accuracy    <       0.00000243 Ry

     iteration # 49     ecut=    50.00 Ry     beta= 0.70
     CG style diagonalization
     ethr =  9.04E-10,  avg # of iterations =  3.6

     negative rho (up, down):  1.397E-02 0.000E+00

     total cpu time spent up to now is      289.3 secs

     total energy              =    -440.34749835 Ry
     estimated scf accuracy    <       0.00000048 Ry

     iteration # 50     ecut=    50.00 Ry     beta= 0.70
     CG style diagonalization
     ethr =  3.46E-10,  avg # of iterations =  4.8

     negative rho (up, down):  1.380E-02 0.000E+00

     total cpu time spent up to now is      295.9 secs

     total energy              =    -440.34749874 Ry
     estimated scf accuracy    <       0.00000052 Ry

     iteration # 51     ecut=    50.00 Ry     beta= 0.70
     CG style diagonalization
     ethr =  3.46E-10,  avg # of iterations =  3.7

     negative rho (up, down):  1.365E-02 0.000E+00

     total cpu time spent up to now is      301.0 secs

     total energy              =    -440.34749884 Ry
     estimated scf accuracy    <       0.00000017 Ry

     iteration # 52     ecut=    50.00 Ry     beta= 0.70
     CG style diagonalization
     ethr =  1.24E-10,  avg # of iterations =  4.1

     negative rho (up, down):  1.358E-02 0.000E+00

     total cpu time spent up to now is      306.7 secs

     total energy              =    -440.34749892 Ry
     estimated scf accuracy    <       0.00000011 Ry

     iteration # 53     ecut=    50.00 Ry     beta= 0.70
     CG style diagonalization
     ethr =  8.00E-11,  avg # of iterations =  4.3

     negative rho (up, down):  1.358E-02 0.000E+00

     total cpu time spent up to now is      312.7 secs

     total energy              =    -440.34749897 Ry
     estimated scf accuracy    <       0.00000041 Ry

     iteration # 54     ecut=    50.00 Ry     beta= 0.70
     CG style diagonalization
     ethr =  8.00E-11,  avg # of iterations =  3.5

     negative rho (up, down):  1.359E-02 0.000E+00

     total cpu time spent up to now is      317.5 secs

     total energy              =    -440.34749884 Ry
     estimated scf accuracy    <       0.00000034 Ry

     iteration # 55     ecut=    50.00 Ry     beta= 0.70
     CG style diagonalization
     ethr =  8.00E-11,  avg # of iterations =  3.8

     negative rho (up, down):  1.359E-02 0.000E+00

     total cpu time spent up to now is      322.8 secs

     total energy              =    -440.34749887 Ry
     estimated scf accuracy    <       0.00000007 Ry

     iteration # 56     ecut=    50.00 Ry     beta= 0.70
     CG style diagonalization
     ethr =  5.24E-11,  avg # of iterations =  5.8

     negative rho (up, down):  1.358E-02 0.000E+00

     total cpu time spent up to now is      330.6 secs

     total energy              =    -440.34749889 Ry
     estimated scf accuracy    <       0.00000039 Ry

     iteration # 57     ecut=    50.00 Ry     beta= 0.70
     CG style diagonalization
     ethr =  5.24E-11,  avg # of iterations =  4.0

     negative rho (up, down):  1.357E-02 0.000E+00

     total cpu time spent up to now is      336.1 secs

     total energy              =    -440.34749879 Ry
     estimated scf accuracy    <       0.00000015 Ry

     iteration # 58     ecut=    50.00 Ry     beta= 0.70
     CG style diagonalization
     ethr =  5.24E-11,  avg # of iterations =  4.7

     negative rho (up, down):  1.358E-02 0.000E+00

     total cpu time spent up to now is      342.5 secs

     total energy              =    -440.34749889 Ry
     estimated scf accuracy    <       0.00000010 Ry

     iteration # 59     ecut=    50.00 Ry     beta= 0.70
     CG style diagonalization
     ethr =  5.24E-11,  avg # of iterations =  4.0

     negative rho (up, down):  1.360E-02 0.000E+00

     total cpu time spent up to now is      348.0 secs

     total energy              =    -440.34749888 Ry
     estimated scf accuracy    <       0.00000018 Ry

     iteration # 60     ecut=    50.00 Ry     beta= 0.70
     CG style diagonalization
     ethr =  5.24E-11,  avg # of iterations =  3.5

     negative rho (up, down):  1.364E-02 0.000E+00

     total cpu time spent up to now is      352.9 secs

     total energy              =    -440.34749886 Ry
     estimated scf accuracy    <       0.00000009 Ry

     iteration # 61     ecut=    50.00 Ry     beta= 0.70
     CG style diagonalization
     ethr =  5.24E-11,  avg # of iterations =  4.3

     negative rho (up, down):  1.365E-02 0.000E+00

     total cpu time spent up to now is      358.8 secs

     total energy              =    -440.34749892 Ry
     estimated scf accuracy    <       0.00000004 Ry

     iteration # 62     ecut=    50.00 Ry     beta= 0.70
     CG style diagonalization
     ethr =  2.77E-11,  avg # of iterations =  4.7

     negative rho (up, down):  1.367E-02 0.000E+00

     total cpu time spent up to now is      365.1 secs

     total energy              =    -440.34749893 Ry
     estimated scf accuracy    <       0.00000020 Ry

     iteration # 63     ecut=    50.00 Ry     beta= 0.70
     CG style diagonalization
     ethr =  2.77E-11,  avg # of iterations =  3.6

     negative rho (up, down):  1.368E-02 0.000E+00

     total cpu time spent up to now is      370.1 secs

     total energy              =    -440.34749888 Ry
     estimated scf accuracy    <       0.00000012 Ry

     iteration # 64     ecut=    50.00 Ry     beta= 0.70
     CG style diagonalization
     ethr =  2.77E-11,  avg # of iterations =  3.9

     negative rho (up, down):  1.369E-02 0.000E+00

     total cpu time spent up to now is      375.5 secs

     total energy              =    -440.34749889 Ry
     estimated scf accuracy    <       0.00000001 Ry

     iteration # 65     ecut=    50.00 Ry     beta= 0.70
     CG style diagonalization
     ethr =  9.92E-12,  avg # of iterations =  5.5

     negative rho (up, down):  1.372E-02 0.000E+00

     total cpu time spent up to now is      383.0 secs

     total energy              =    -440.34749893 Ry
     estimated scf accuracy    <       0.00000007 Ry

     iteration # 66     ecut=    50.00 Ry     beta= 0.70
     CG style diagonalization
     ethr =  9.92E-12,  avg # of iterations =  4.0

     negative rho (up, down):  1.374E-02 0.000E+00

     total cpu time spent up to now is      388.5 secs

     total energy              =    -440.34749893 Ry
     estimated scf accuracy    <       0.00000003 Ry

     iteration # 67     ecut=    50.00 Ry     beta= 0.70
     CG style diagonalization
     ethr =  9.92E-12,  avg # of iterations =  4.6

     negative rho (up, down):  1.374E-02 0.000E+00

     total cpu time spent up to now is      394.8 secs

     total energy              =    -440.34749894 Ry
     estimated scf accuracy    <          5.7E-09 Ry

     iteration # 68     ecut=    50.00 Ry     beta= 0.70
     CG style diagonalization
     ethr =  4.04E-12,  avg # of iterations =  4.2

     negative rho (up, down):  1.375E-02 0.000E+00

     total cpu time spent up to now is      400.5 secs

     total energy              =    -440.34749894 Ry
     estimated scf accuracy    <          9.3E-09 Ry

     iteration # 69     ecut=    50.00 Ry     beta= 0.70
     CG style diagonalization
     ethr =  4.04E-12,  avg # of iterations =  3.5

     negative rho (up, down):  1.376E-02 0.000E+00

     total cpu time spent up to now is      405.3 secs

     total energy              =    -440.34749895 Ry
     estimated scf accuracy    <          3.4E-09 Ry

     iteration # 70     ecut=    50.00 Ry     beta= 0.70
     CG style diagonalization
     ethr =  2.41E-12,  avg # of iterations =  3.6

     negative rho (up, down):  1.377E-02 0.000E+00

     total cpu time spent up to now is      410.3 secs

     total energy              =    -440.34749895 Ry
     estimated scf accuracy    <          1.3E-09 Ry

     iteration # 71     ecut=    50.00 Ry     beta= 0.70
     CG style diagonalization
     ethr =  9.12E-13,  avg # of iterations =  4.3

     negative rho (up, down):  1.377E-02 0.000E+00

     total cpu time spent up to now is      416.2 secs

     total energy              =    -440.34749895 Ry
     estimated scf accuracy    <          4.7E-10 Ry

     iteration # 72     ecut=    50.00 Ry     beta= 0.70
     CG style diagonalization
     ethr =  3.38E-13,  avg # of iterations =  4.4

     negative rho (up, down):  1.377E-02 0.000E+00

     total cpu time spent up to now is      422.2 secs

     total energy              =    -440.34749895 Ry
     estimated scf accuracy    <          1.1E-09 Ry

     iteration # 73     ecut=    50.00 Ry     beta= 0.70
     CG style diagonalization
     ethr =  3.38E-13,  avg # of iterations =  3.6

     negative rho (up, down):  1.377E-02 0.000E+00

     total cpu time spent up to now is      427.1 secs

     total energy              =    -440.34749895 Ry
     estimated scf accuracy    <          8.6E-10 Ry

     iteration # 74     ecut=    50.00 Ry     beta= 0.70
     CG style diagonalization
     ethr =  3.38E-13,  avg # of iterations =  4.0

     negative rho (up, down):  1.377E-02 0.000E+00

     total cpu time spent up to now is      432.6 secs

     total energy              =    -440.34749895 Ry
     estimated scf accuracy    <          1.7E-10 Ry

     iteration # 75     ecut=    50.00 Ry     beta= 0.70
     CG style diagonalization
     ethr =  1.19E-13,  avg # of iterations =  5.1

     negative rho (up, down):  1.377E-02 0.000E+00

     total cpu time spent up to now is      439.4 secs

     total energy              =    -440.34749895 Ry
     estimated scf accuracy    <          1.3E-09 Ry

     iteration # 76     ecut=    50.00 Ry     beta= 0.70
     CG style diagonalization
     ethr =  1.19E-13,  avg # of iterations =  3.6

     negative rho (up, down):  1.377E-02 0.000E+00

     total cpu time spent up to now is      444.4 secs

     total energy              =    -440.34749895 Ry
     estimated scf accuracy    <          9.7E-10 Ry

     iteration # 77     ecut=    50.00 Ry     beta= 0.70
     CG style diagonalization
     ethr =  1.19E-13,  avg # of iterations =  4.2

     negative rho (up, down):  1.377E-02 0.000E+00

     total cpu time spent up to now is      450.1 secs

     total energy              =    -440.34749895 Ry
     estimated scf accuracy    <          1.0E-10 Ry

     iteration # 78     ecut=    50.00 Ry     beta= 0.70
     CG style diagonalization
     ethr =  1.00E-13,  avg # of iterations =  5.2

     negative rho (up, down):  1.377E-02 0.000E+00

     total cpu time spent up to now is      457.2 secs

     total energy              =    -440.34749895 Ry
     estimated scf accuracy    <          7.2E-10 Ry

     iteration # 79     ecut=    50.00 Ry     beta= 0.70
     CG style diagonalization
     ethr =  1.00E-13,  avg # of iterations =  3.8

     negative rho (up, down):  1.378E-02 0.000E+00

     total cpu time spent up to now is      462.4 secs

     total energy              =    -440.34749895 Ry
     estimated scf accuracy    <          3.6E-10 Ry

     iteration # 80     ecut=    50.00 Ry     beta= 0.70
     CG style diagonalization
     ethr =  1.00E-13,  avg # of iterations =  3.5

     negative rho (up, down):  1.378E-02 0.000E+00

     total cpu time spent up to now is      467.2 secs

     total energy              =    -440.34749895 Ry
     estimated scf accuracy    <          1.6E-10 Ry

     iteration # 81     ecut=    50.00 Ry     beta= 0.70
     CG style diagonalization
     ethr =  1.00E-13,  avg # of iterations =  4.1

     negative rho (up, down):  1.377E-02 0.000E+00

     total cpu time spent up to now is      472.6 secs

     End of self-consistent calculation

          k = 0.0000 0.0000 0.0000 (544264 PWs)   bands (ev):

   -27.1366 -27.0527 -25.5640 -23.6078 -21.5711 -21.5140 -21.1733 -19.8302
   -19.3135 -19.0225 -18.9455 -18.6258 -18.5157 -18.1359 -17.4083 -17.3429
   -16.5577 -15.8516 -15.2092 -15.1041 -15.0533 -14.8722 -14.1535 -13.9385
   -13.4476 -13.1802 -12.8388 -12.7426 -12.2758 -12.0768 -12.0425 -11.7340
   -11.7039 -11.6264 -11.6065 -11.4744 -11.0199 -10.8391 -10.6178 -10.4588
   -10.4251 -10.2642 -10.2042 -10.1182  -9.9902  -9.7840  -9.6923  -9.5395
    -9.3032  -9.2546  -9.0699  -8.9136  -8.7977  -8.7081  -8.5570  -8.5018
    -8.1581  -8.1264  -7.9741  -7.8508  -7.7481  -7.2385  -6.8949  -6.4064
    -6.2248  -5.8534  -5.6547  -5.5133  -5.4549  -5.3529

     highest occupied level (ev):    -5.3529

!    total energy              =    -440.34749895 Ry
     estimated scf accuracy    <          3.5E-11 Ry

     The total energy is the sum of the following terms:
     one-electron contribution =   -3032.72584599 Ry
     hartree contribution      =    1533.58521137 Ry
     xc contribution           =    -154.10338021 Ry
     ewald contribution        =    1212.89651588 Ry

     convergence has been achieved in  81 iterations

     negative rho (up, down):  1.377E-02 0.000E+00

     Forces acting on atoms (cartesian axes, Ry/au):

     atom    1 type  1   force =    -0.00651668   -0.01309343   -0.05453279
     atom    2 type  1   force =    -0.00650284   -0.00627586   -0.01978244
     atom    3 type  1   force =    -0.00766546   -0.01129565   -0.01719776
     atom    4 type  2   force =     0.02600494   -0.00584014    0.01499269
     atom    5 type  3   force =    -0.00171867    0.00609589    0.00420210
     atom    6 type  4   force =    -0.00253711    0.00705141    0.00425395
     atom    7 type  3   force =     0.00296558    0.00115071    0.00747927
     atom    8 type  4   force =     0.00319832    0.00183203    0.00786324
     atom    9 type  3   force =     0.00628138   -0.00380207    0.00628753
     atom   10 type  4   force =     0.00568147   -0.00487243    0.00410846
     atom   11 type  3   force =    -0.00420285    0.00735693    0.00182482
     atom   12 type  3   force =    -0.00113129   -0.00394955   -0.00746386
     atom   13 type  4   force =    -0.00307331   -0.00187375   -0.00789903
     atom   14 type  3   force =    -0.00984827    0.00908895   -0.00618880
     atom   15 type  3   force =     0.01169042   -0.01414980    0.00035784
     atom   16 type  4   force =    -0.00199438   -0.00286064   -0.00852212
     atom   17 type  3   force =    -0.00807153    0.01191633    0.00309412
     atom   18 type  4   force =     0.00135304    0.00293871    0.00863255
     atom   19 type  3   force =     0.00554945    0.01004358    0.04333423
     atom   20 type  3   force =     0.00547810   -0.00669316   -0.00241946
     atom   21 type  3   force =    -0.00160720    0.00200063   -0.00684266
     atom   22 type  4   force =     0.00092661   -0.00134115   -0.00878036
     atom   23 type  3   force =    -0.00207046    0.00316494   -0.00776638
     atom   24 type  4   force =    -0.00386378    0.00569827   -0.00548452
     atom   25 type  3   force =    -0.00127721    0.00619857    0.00498825
     atom   26 type  3   force =     0.00173643   -0.00191904    0.00845773
     atom   27 type  4   force =    -0.00085201    0.00139785    0.00856660
     atom   28 type  3   force =     0.00210896   -0.00281800    0.00678721
     atom   29 type  4   force =     0.00415196   -0.00525039    0.00566656
     atom   30 type  3   force =    -0.02736772    0.01460947   -0.00643880
     atom   31 type  4   force =    -0.00474569   -0.00537587   -0.00721977
     atom   32 type  3   force =     0.00775684   -0.00965218   -0.00472305
     atom   33 type  3   force =    -0.00434034   -0.00342834   -0.00652180
     atom   34 type  4   force =    -0.00225410   -0.00493644   -0.00674271
     atom   35 type  3   force =     0.00711045   -0.00323649    0.00208603
     atom   36 type  3   force =    -0.00326653    0.00768722    0.00538302
     atom   37 type  4   force =    -0.00460534    0.00654473    0.00300555
     atom   38 type  3   force =     0.00192690    0.00491108    0.00594567
     atom   39 type  4   force =     0.00233575    0.00490018    0.00681945
     atom   40 type  3   force =     0.00655433   -0.00054533    0.00460925
     atom   41 type  4   force =     0.00726886   -0.00185951    0.00399599
     atom   42 type  3   force =     0.00829698   -0.00981843    0.00262366
     atom   43 type  4   force =     0.00147289   -0.00635234   -0.00531279
     atom   44 type  4   force =    -0.00225935   -0.00371554    0.00778717
     atom   45 type  4   force =     0.00797850    0.00346483    0.00205281
     atom   46 type  3   force =    -0.00961991    0.00882421    0.00140779
     atom   47 type  4   force =    -0.00669245    0.00027714   -0.00502890
     atom   48 type  4   force =     0.00341211    0.00826707   -0.00007504
     atom   49 type  4   force =    -0.00315579   -0.00046520    0.00832948

     Total force =     0.110277     Total SCF correction =     0.000004

     BFGS Geometry Optimization
     Energy error            =      0.0E+00
     Gradient error          =      5.5E-02

     number of scf cycles    =   1
     number of bfgs steps    =   0

     energy   new            =    -440.3474989453 Ry

     new trust radius        =       0.0564599883 bohr
     new conv_thr            =            1.0E-10 Ry


ATOMIC_POSITIONS (angstrom)
O            16.4907345208       13.3084262566       12.3079464897
O            20.9203938454        7.8508249576       13.8078255839
O             8.5063826135       20.8303496013       14.6831813376
N            13.5804222230       17.8635715301       15.6794867920
C            19.6911425195       11.2426678079       15.8573206553
H            19.3672244186       12.1370404433       16.3753000928
C            20.6134613190       10.4010219288       16.4487928614
H            21.0041154792       10.6375544709       17.4322920486
C            21.0611349632        9.2457200288       15.8059232186
H            21.7836005020        8.6064066207       16.2939451018
C            20.5648409478        8.9461831223       14.5398756524
C            19.6409913492        9.7894659858       13.9332862964
H            19.2716546739        9.5368734544       12.9455550130
C            19.1854325188       10.9434236630       14.5775010302
C            18.2227803028       11.7647132493       13.8914123621
H            17.9718826183       11.4845772164       12.8660932908
C            17.5782097313       12.8543078502       14.3734483352
H            17.7632699991       13.1994160966       15.3845131509
C            16.6381716435       13.5976158327       13.5385474864
C            15.8584178839       14.7058161342       14.1169026770
C            15.1901635048       15.5807916877       13.2503230183
H            15.2916123396       15.4126812947       12.1834786322
C            14.4339413608       16.6270558127       13.7363892109
H            13.9577643759       17.3209643927       13.0523157164
C            14.3056951297       16.8259571396       15.1229276676
C            14.9875278793       15.9665584856       15.9923496395
H            14.8979901358       16.1356367116       17.0590502473
C            15.7427230142       14.9206207775       15.4963206365
H            16.2340261209       14.2562446120       16.1974236156
C            12.4343256263       18.1906150010       15.1524737336
H            12.0195886882       17.6110952120       14.3151314648
C            11.6446547431       19.2943632887       15.6360386688
C            10.4480381921       19.5819078002       14.9807898118
H            10.1269651827       18.9870577486       14.1322549138
C             9.6484616873       20.6381303254       15.4043598806
C            10.0358594278       21.4124399030       16.4953495710
H             9.4263849565       22.2354413231       16.8421084689
C            11.2339536741       21.1170578311       17.1490143130
H            11.5292430250       21.7236230627       17.9980896986
C            12.0410674015       20.0751984248       16.7346501109
H            12.9713445137       19.8405349896       17.2360745864
C            21.8679985707        6.9665563114       14.3885863801
H            22.0104844218        6.1720404879       13.6569995931
H            21.4925914057        6.5383248192       15.3274217905
H            22.8252640425        7.4718895113       14.5732843020
C             7.6447493646       21.8774425720       15.1068969707
H             6.7992545056       21.8535826539       14.4203468209
H             8.1412416106       22.8546697425       15.0443022900
H             7.2904170263       21.7113098263       16.1328487698
