 DBCSR| CPU Multiplication driver                                           XSMM (U)
 DBCSR| Multrec recursion limit                                              512 (U)
 DBCSR| Multiplication stack size                                           1000 (D)
 DBCSR| Maximum elements for images                                    UNLIMITED (U)
 DBCSR| Multiplicative factor virtual images                                   1 (U)
 DBCSR| Use multiplication densification                                       T (D)
 DBCSR| Multiplication size stacks                                             3 (U)
 DBCSR| Use memory pool for CPU allocation                                     F (U)
 DBCSR| Number of 3D layers                                               SINGLE (U)
 DBCSR| Use MPI memory allocation                                              F (U)
 DBCSR| Use RMA algorithm                                                      F (U)
 DBCSR| Use Communication thread                                               T (U)
 DBCSR| Communication thread load                                             83 (D)
 DBCSR| MPI: My process id                                                     0
 DBCSR| MPI: Number of processes                                              90
 DBCSR| OMP: Current number of threads                                         2
 DBCSR| OMP: Max number of threads                                             2
 DBCSR| Split modifier for TAS multiplication algorithm                  1.0E+00 (U)


  **** **** ******  **  PROGRAM STARTED AT               2024-02-29 17:04:34.443
 ***** ** ***  *** **   PROGRAM STARTED ON                          28737885bbaf
 **    ****   ******    PROGRAM STARTED BY                             <unknown>
 ***** **    ** ** **   PROGRAM PROCESS ID                                   538
  **** **  *******  **  PROGRAM STARTED IN                                  /mnt

 CP2K| version string:                                       CP2K version 2023.2
 CP2K| source code revision number:                                  git:65cca6c
 CP2K| cp2kflags: omp libint fftw3 libxc pexsi elpa parallel scalapack cosma qui
 CP2K|            p xsmm plumed2 spglib sirius libvori libbqb libtorch libvdwxc
 CP2K| is freely available from                            https://www.cp2k.org/
 CP2K| Program compiled at                          Wed Oct 18 11:40:41 UTC 2023
 CP2K| Program compiled on                                          633bb7bf566f
 CP2K| Program compiled for                                                local
 CP2K| Data directory path                                        /opt/cp2k/data
 CP2K| Input file name                                   4amp33isopbe_solvent.in

 GLOBAL| Force Environment number                                              1
 GLOBAL| Basis set file name                                      GTH_BASIS_SETS
 GLOBAL| Potential file name                                           POTENTIAL
 GLOBAL| MM Potential file name                                     MM_POTENTIAL
 GLOBAL| Coordinate file name                                      __STD_INPUT__
 GLOBAL| Method name                                                        CP2K
 GLOBAL| Project name                                        4amp33isopbesolvent
 GLOBAL| Run type                                                         ENERGY
 GLOBAL| FFT library                                                       FFTW3
 GLOBAL| Diagonalization library                                       ScaLAPACK
 GLOBAL| DGEMM library                                                      BLAS
 GLOBAL| Orthonormality check for eigenvectors                          DISABLED
 GLOBAL| Matrix multiplication library                                     COSMA
 GLOBAL| All-to-all communication in single precision                          F
 GLOBAL| FFTs using library dependent lengths                                  F
 GLOBAL| Grid backend                                                       AUTO
 GLOBAL| Global print level                                               MEDIUM
 GLOBAL| MPI I/O enabled                                                       T
 GLOBAL| Total number of message passing processes                            90
 GLOBAL| Number of threads for this process                                    2
 GLOBAL| This output is from process                                           0
 GLOBAL| Stack size for threads created by OpenMP (OMP_STACKSIZE)            16M
 GLOBAL| CPU model name                                            AMD EPYC 9B14
 GLOBAL| CPUID                                                              1003
 GLOBAL| Compiled for CPUID                                                    0

 *** HINT in environment.F:904 :: The compiler target flags (generic) used ***
 *** to build this binary cannot exploit all extensions of this CPU model  ***
 *** (x86_avx512). Consider compiler target flags as part of FCFLAGS and   ***
 *** CFLAGS (ARCH file).                                                   ***


 MEMORY| system memory details [Kb]
 MEMORY|                        rank 0           min           max       average
 MEMORY| MemTotal            365023400     365023400     365023400     365023400
 MEMORY| MemFree             351409460     351409460     351409460     351409460
 MEMORY| Buffers                 20940         20940         20940         20940
 MEMORY| Cached                 826552        826552        826552        826552
 MEMORY| Slab                   441984        441984        441984        441984
 MEMORY| SReclaimable            89308         89308         89308         89308
 MEMORY| MemLikelyFree       352346260     352346260     352346260     352346260


 *** Fundamental physical constants (SI units) ***

 *** Literature: B. J. Mohr and B. N. Taylor,
 ***             CODATA recommended values of the fundamental physical
 ***             constants: 2006, Web Version 5.1
 ***             http://physics.nist.gov/constants

 Speed of light in vacuum [m/s]                             2.99792458000000E+08
 Magnetic constant or permeability of vacuum [N/A**2]       1.25663706143592E-06
 Electric constant or permittivity of vacuum [F/m]          8.85418781762039E-12
 Planck constant (h) [J*s]                                  6.62606896000000E-34
 Planck constant (h-bar) [J*s]                              1.05457162825177E-34
 Elementary charge [C]                                      1.60217648700000E-19
 Electron mass [kg]                                         9.10938215000000E-31
 Electron g factor [ ]                                     -2.00231930436220E+00
 Proton mass [kg]                                           1.67262163700000E-27
 Fine-structure constant                                    7.29735253760000E-03
 Rydberg constant [1/m]                                     1.09737315685270E+07
 Avogadro constant [1/mol]                                  6.02214179000000E+23
 Boltzmann constant [J/K]                                   1.38065040000000E-23
 Atomic mass unit [kg]                                      1.66053878200000E-27
 Bohr radius [m]                                            5.29177208590000E-11

 *** Conversion factors ***

 [u] -> [a.u.]                                              1.82288848426455E+03
 [Angstrom] -> [Bohr] = [a.u.]                              1.88972613288564E+00
 [a.u.] = [Bohr] -> [Angstrom]                              5.29177208590000E-01
 [a.u.] -> [s]                                              2.41888432650478E-17
 [a.u.] -> [fs]                                             2.41888432650478E-02
 [a.u.] -> [J]                                              4.35974393937059E-18
 [a.u.] -> [N]                                              8.23872205491840E-08
 [a.u.] -> [K]                                              3.15774647902944E+05
 [a.u.] -> [kJ/mol]                                         2.62549961709828E+03
 [a.u.] -> [kcal/mol]                                       6.27509468713739E+02
 [a.u.] -> [Pa]                                             2.94210107994716E+13
 [a.u.] -> [bar]                                            2.94210107994716E+08
 [a.u.] -> [atm]                                            2.90362800883016E+08
 [a.u.] -> [eV]                                             2.72113838565563E+01
 [a.u.] -> [Hz]                                             6.57968392072181E+15
 [a.u.] -> [1/cm] (wave numbers)                            2.19474631370540E+05
 [a.u./Bohr**2] -> [1/cm]                                   5.14048714338585E+03
 

 CELL_TOP| Volume [angstrom^3]:                                     17576.000000
 CELL_TOP| Vector a [angstrom    26.000     0.000     0.000   |a| =    26.000000
 CELL_TOP| Vector b [angstrom     0.000    26.000     0.000   |b| =    26.000000
 CELL_TOP| Vector c [angstrom     0.000     0.000    26.000   |c| =    26.000000
 CELL_TOP| Angle (b,c), alpha [degree]:                                90.000000
 CELL_TOP| Angle (a,c), beta  [degree]:                                90.000000
 CELL_TOP| Angle (a,b), gamma [degree]:                                90.000000
 CELL_TOP| Numerically orthorhombic:                                         YES
 CELL_TOP| Periodicity                                                      NONE

 GENERATE|  Preliminary Number of Bonds generated:                             0
 GENERATE|  Achieved consistency in connectivity generation.

 CELL| Volume [angstrom^3]:                                         17576.000000
 CELL| Vector a [angstrom]:      26.000     0.000     0.000   |a| =    26.000000
 CELL| Vector b [angstrom]:       0.000    26.000     0.000   |b| =    26.000000
 CELL| Vector c [angstrom]:       0.000     0.000    26.000   |c| =    26.000000
 CELL| Angle (b,c), alpha [degree]:                                    90.000000
 CELL| Angle (a,c), beta  [degree]:                                    90.000000
 CELL| Angle (a,b), gamma [degree]:                                    90.000000
 CELL| Numerically orthorhombic:                                             YES
 CELL| Periodicity                                                          NONE

 CELL_REF| Volume [angstrom^3]:                                     17576.000000
 CELL_REF| Vector a [angstrom    26.000     0.000     0.000   |a| =    26.000000
 CELL_REF| Vector b [angstrom     0.000    26.000     0.000   |b| =    26.000000
 CELL_REF| Vector c [angstrom     0.000     0.000    26.000   |c| =    26.000000
 CELL_REF| Angle (b,c), alpha [degree]:                                90.000000
 CELL_REF| Angle (a,c), beta  [degree]:                                90.000000
 CELL_REF| Angle (a,b), gamma [degree]:                                90.000000
 CELL_REF| Numerically orthorhombic:                                         YES
 CELL_REF| Periodicity                                                      NONE

 *******************************************************************************
 *******************************************************************************
 **                                                                           **
 **     #####                         ##              ##                      **
 **    ##   ##            ##          ##              ##                      **
 **   ##     ##                       ##            ######                    **
 **   ##     ##  ##   ##  ##   #####  ##  ##   ####   ##    #####    #####    **
 **   ##     ##  ##   ##  ##  ##      ## ##   ##      ##   ##   ##  ##   ##   **
 **   ##  ## ##  ##   ##  ##  ##      ####     ###    ##   ######   ######    **
 **    ##  ###   ##   ##  ##  ##      ## ##      ##   ##   ##       ##        **
 **     #######   #####   ##   #####  ##  ##  ####    ##    #####   ##        **
 **           ##                                                    ##        **
 **                                                                           **
 **                                                ... make the atoms dance   **
 **                                                                           **
 **            Copyright (C) by CP2K developers group (2000-2023)             **
 **                      J. Chem. Phys. 152, 194103 (2020)                    **
 **                                                                           **
 *******************************************************************************

 DFT| Spin restricted Kohn-Sham (RKS) calculation                            RKS
 DFT| Multiplicity                                                             1
 DFT| Number of spin states                                                    1
 DFT| Charge                                                                   0
 DFT| Self-interaction correction (SIC)                                       NO
 DFT| Cutoffs: density                                              1.000000E-10
 DFT|          gradient                                             1.000000E-10
 DFT|          tau                                                  1.000000E-10
 DFT|          cutoff_smoothing_range                               0.000000E+00
 DFT| XC density smoothing                                                  NONE
 DFT| XC derivatives                                                          PW

 FUNCTIONAL| PBE:
 FUNCTIONAL| J.P.Perdew, K.Burke, M.Ernzerhof, Phys. Rev. Letter, vol. 77, n 18,
 FUNCTIONAL|  pp. 3865-3868, (1996){spin unpolarized}                           

 SCCS| Self-consistent continuum solvation model
 SCCS| Relative permittivity of the solvent (medium)                3.671000E+01
 SCCS| Absolute permittivity [a.u.]                                 2.921289E+00
 SCCS| Dielectric function proposed by Fattebert and Gygi
 SCCS|  beta                                                        1.700000E+00
 SCCS|  rho_zero                                                    6.000000E-04
 SCCS| Numerical derivative calculation      5-point stencil central differences
 SCCS| Repulsion parameter alpha [mN/m] = [dyn/cm]                  9.880000E+00
 SCCS| Dispersion parameter beta [GPa]                             -5.000000E-01
 SCCS| Surface tension gamma [mN/m] = [dyn/cm]                      3.642000E+01
 SCCS| Mixing parameter applied during the iteration cycle          6.000000E-01
 SCCS| Tolerance for the convergence of the SCCS iteration c        1.000000E-07
 SCCS| Maximum number of iteration steps                                     100
 SCCS| SCF convergence threshold for starting the SCCS itera        1.000000E-02
 SCCS| Numerical increment for the cavity surface calculatio        2.000000E-05

 vdW POTENTIAL|                                                   Pair Potential
 vdW POTENTIAL|          DFT-D3 (Version 3.1)
 vdW POTENTIAL|          Potential Form: S. Grimme et al, JCP 132: 154104 (2010)
 vdW POTENTIAL|          BJ Damping: S. Grimme et al, JCC 32: 1456 (2011)
 vdW POTENTIAL|          Cutoff Radius [Bohr]:                             30.24
 vdW POTENTIAL|          s6 Scaling Factor:                               1.0000
 vdW POTENTIAL|          a1 Damping Factor:                               0.4289
 vdW POTENTIAL|          s8 Scaling Factor:                               0.7875
 vdW POTENTIAL|          a2 Damping Factor:                               4.4407
 vdW POTENTIAL|          Cutoff for CN calculation:                   0.1000E-05

 QS| Method:                                                                 GPW
 QS| Density plane wave grid type                        NON-SPHERICAL FULLSPACE
 QS| Number of grid levels:                                                    6
 QS| Density cutoff [a.u.]:                                                300.0
 QS| Multi grid cutoff [a.u.]: 1) grid level                               300.0
 QS|                           2) grid level                               100.0
 QS|                           3) grid level                                33.3
 QS|                           4) grid level                                11.1
 QS|                           5) grid level                                 3.7
 QS|                           6) grid level                                 1.2
 QS| Grid level progression factor:                                          3.0
 QS| Relative density cutoff [a.u.]:                                        40.0
 QS| Interaction thresholds: eps_pgf_orb:                                1.0E-05
 QS|                         eps_filter_matrix:                          0.0E+00
 QS|                         eps_core_charge:                            1.0E-12
 QS|                         eps_rho_gspace:                             1.0E-10
 QS|                         eps_rho_rspace:                             1.0E-10
 QS|                         eps_gvg_rspace:                             1.0E-05
 QS|                         eps_ppl:                                    1.0E-02
 QS|                         eps_ppnl:                                   1.0E-07


 ATOMIC KIND INFORMATION

  1. Atomic kind: O                                     Number of atoms:       1

     Orbital Basis Set                                               TZVP-GTH-q6

       Number of orbital shell sets:                                           2
       Number of orbital shells:                                               7
       Number of primitive Cartesian functions:                                6
       Number of Cartesian basis functions:                                   18
       Number of spherical basis functions:                                   17
       Norm type:                                                              2

       Normalised Cartesian orbitals:

                        Set   Shell   Orbital            Exponent    Coefficient

                          1       1    2s               10.267442       0.404544
                                                         3.748050       0.199889
                                                         1.330834      -0.336302
                                                         0.455680      -0.246356
                                                         0.146292      -0.028287

                          1       2    3s               10.267442       0.000000
                                                         3.748050       0.000000
                                                         1.330834       0.000000
                                                         0.455680       0.395280
                                                         0.146292       0.000000

                          1       3    4s               10.267442       0.000000
                                                         3.748050       0.000000
                                                         1.330834       0.000000
                                                         0.455680       0.000000
                                                         0.146292       0.168588

                          1       4    3px              10.267442      -1.561025
                                                         3.748050      -1.394275
                                                         1.330834      -0.754014
                                                         0.455680      -0.224400
                                                         0.146292      -0.029841
                          1       4    3py              10.267442      -1.561025
                                                         3.748050      -1.394275
                                                         1.330834      -0.754014
                                                         0.455680      -0.224400
                                                         0.146292      -0.029841
                          1       4    3pz              10.267442      -1.561025
                                                         3.748050      -1.394275
                                                         1.330834      -0.754014
                                                         0.455680      -0.224400
                                                         0.146292      -0.029841

                          1       5    4px              10.267442       0.000000
                                                         3.748050       0.000000
                                                         1.330834       0.000000
                                                         0.455680       0.533661
                                                         0.146292       0.000000
                          1       5    4py              10.267442       0.000000
                                                         3.748050       0.000000
                                                         1.330834       0.000000
                                                         0.455680       0.533661
                                                         0.146292       0.000000
                          1       5    4pz              10.267442       0.000000
                                                         3.748050       0.000000
                                                         1.330834       0.000000
                                                         0.455680       0.533661
                                                         0.146292       0.000000

                          1       6    5px              10.267442       0.000000
                                                         3.748050       0.000000
                                                         1.330834       0.000000
                                                         0.455680       0.000000
                                                         0.146292       0.128963
                          1       6    5py              10.267442       0.000000
                                                         3.748050       0.000000
                                                         1.330834       0.000000
                                                         0.455680       0.000000
                                                         0.146292       0.128963
                          1       6    5pz              10.267442       0.000000
                                                         3.748050       0.000000
                                                         1.330834       0.000000
                                                         0.455680       0.000000
                                                         0.146292       0.128963

                          2       1    3dx2              1.185000       2.215218
                          2       1    3dxy              1.185000       3.836871
                          2       1    3dxz              1.185000       3.836871
                          2       1    3dy2              1.185000       2.215218
                          2       1    3dyz              1.185000       3.836871
                          2       1    3dz2              1.185000       2.215218

       Atomic covalent radius [Angstrom]:                                  0.730

       Atomic van der Waals radius [Angstrom]:                             1.520

     GTH Potential information for                                       GTH-PBE

       Description:                       Goedecker-Teter-Hutter pseudopotential
                                           Goedecker et al., PRB 54, 1703 (1996)
                                          Hartwigsen et al., PRB 58, 3641 (1998)
                                                      Krack, TCA 114, 145 (2005)

       Gaussian exponent of the core charge distribution:               8.360253
       Electronic configuration (s p d ...):                               2   4

       Parameters of the local part of the GTH pseudopotential:

                          rloc        C1          C2          C3          C4
                        0.244554  -16.667215    2.487311

       Parameters of the non-local part of the GTH pseudopotential:

                   l      r(l)      h(i,j,l)

                   0    0.220956   18.337458
                   1    0.211332

  2. Atomic kind: N                                     Number of atoms:       1

     Orbital Basis Set                                               TZVP-GTH-q5

       Number of orbital shell sets:                                           2
       Number of orbital shells:                                               7
       Number of primitive Cartesian functions:                                6
       Number of Cartesian basis functions:                                   18
       Number of spherical basis functions:                                   17
       Norm type:                                                              2

       Normalised Cartesian orbitals:

                        Set   Shell   Orbital            Exponent    Coefficient

                          1       1    2s                7.622745       0.321703
                                                         2.797061       0.161118
                                                         0.990977      -0.264934
                                                         0.341731      -0.199987
                                                         0.111682      -0.023066

                          1       2    3s                7.622745       0.000000
                                                         2.797061       0.000000
                                                         0.990977       0.000000
                                                         0.341731       0.318547
                                                         0.111682       0.000000

                          1       3    4s                7.622745       0.000000
                                                         2.797061       0.000000
                                                         0.990977       0.000000
                                                         0.341731       0.000000
                                                         0.111682       0.137689

                          1       4    3px               7.622745      -1.014025
                                                         2.797061      -0.927144
                                                         0.990977      -0.514975
                                                         0.341731      -0.158623
                                                         0.111682      -0.021774
                          1       4    3py               7.622745      -1.014025
                                                         2.797061      -0.927144
                                                         0.990977      -0.514975
                                                         0.341731      -0.158623
                                                         0.111682      -0.021774
                          1       4    3pz               7.622745      -1.014025
                                                         2.797061      -0.927144
                                                         0.990977      -0.514975
                                                         0.341731      -0.158623
                                                         0.111682      -0.021774

                          1       5    4px               7.622745       0.000000
                                                         2.797061       0.000000
                                                         0.990977       0.000000
                                                         0.341731       0.372431
                                                         0.111682       0.000000
                          1       5    4py               7.622745       0.000000
                                                         2.797061       0.000000
                                                         0.990977       0.000000
                                                         0.341731       0.372431
                                                         0.111682       0.000000
                          1       5    4pz               7.622745       0.000000
                                                         2.797061       0.000000
                                                         0.990977       0.000000
                                                         0.341731       0.372431
                                                         0.111682       0.000000

                          1       6    5px               7.622745       0.000000
                                                         2.797061       0.000000
                                                         0.990977       0.000000
                                                         0.341731       0.000000
                                                         0.111682       0.092028
                          1       6    5py               7.622745       0.000000
                                                         2.797061       0.000000
                                                         0.990977       0.000000
                                                         0.341731       0.000000
                                                         0.111682       0.092028
                          1       6    5pz               7.622745       0.000000
                                                         2.797061       0.000000
                                                         0.990977       0.000000
                                                         0.341731       0.000000
                                                         0.111682       0.092028

                          2       1    3dx2              0.817000       1.155575
                          2       1    3dxy              0.817000       2.001514
                          2       1    3dxz              0.817000       2.001514
                          2       1    3dy2              0.817000       1.155575
                          2       1    3dyz              0.817000       2.001514
                          2       1    3dz2              0.817000       1.155575

       Atomic covalent radius [Angstrom]:                                  0.750

       Atomic van der Waals radius [Angstrom]:                             1.550

     GTH Potential information for                                       GTH-PBE

       Description:                       Goedecker-Teter-Hutter pseudopotential
                                           Goedecker et al., PRB 54, 1703 (1996)
                                          Hartwigsen et al., PRB 58, 3641 (1998)
                                                      Krack, TCA 114, 145 (2005)

       Gaussian exponent of the core charge distribution:               6.208322
       Electronic configuration (s p d ...):                               2   3

       Parameters of the local part of the GTH pseudopotential:

                          rloc        C1          C2          C3          C4
                        0.283791  -12.415226    1.868096

       Parameters of the non-local part of the GTH pseudopotential:

                   l      r(l)      h(i,j,l)

                   0    0.255405   13.630263
                   1    0.245495

  3. Atomic kind: C                                     Number of atoms:      24

     Orbital Basis Set                                               TZVP-GTH-q4

       Number of orbital shell sets:                                           2
       Number of orbital shells:                                               7
       Number of primitive Cartesian functions:                                6
       Number of Cartesian basis functions:                                   18
       Number of spherical basis functions:                                   17
       Norm type:                                                              2

       Normalised Cartesian orbitals:

                        Set   Shell   Orbital            Exponent    Coefficient

                          1       1    2s                5.368566       0.245056
                                                         1.983069       0.124102
                                                         0.697835      -0.198350
                                                         0.243097      -0.156359
                                                         0.081287      -0.018192

                          1       2    3s                5.368566       0.000000
                                                         1.983069       0.000000
                                                         0.697835       0.000000
                                                         0.243097       0.246743
                                                         0.081287       0.000000

                          1       3    4s                5.368566       0.000000
                                                         1.983069       0.000000
                                                         0.697835       0.000000
                                                         0.243097       0.000000
                                                         0.081287       0.108499

                          1       4    3px               5.368566      -0.595193
                                                         1.983069      -0.567909
                                                         0.697835      -0.325466
                                                         0.243097      -0.105296
                                                         0.081287      -0.015205
                          1       4    3py               5.368566      -0.595193
                                                         1.983069      -0.567909
                                                         0.697835      -0.325466
                                                         0.243097      -0.105296
                                                         0.081287      -0.015205
                          1       4    3pz               5.368566      -0.595193
                                                         1.983069      -0.567909
                                                         0.697835      -0.325466
                                                         0.243097      -0.105296
                                                         0.081287      -0.015205

                          1       5    4px               5.368566       0.000000
                                                         1.983069       0.000000
                                                         0.697835       0.000000
                                                         0.243097       0.243312
                                                         0.081287       0.000000
                          1       5    4py               5.368566       0.000000
                                                         1.983069       0.000000
                                                         0.697835       0.000000
                                                         0.243097       0.243312
                                                         0.081287       0.000000
                          1       5    4pz               5.368566       0.000000
                                                         1.983069       0.000000
                                                         0.697835       0.000000
                                                         0.243097       0.243312
                                                         0.081287       0.000000

                          1       6    5px               5.368566       0.000000
                                                         1.983069       0.000000
                                                         0.697835       0.000000
                                                         0.243097       0.000000
                                                         0.081287       0.061868
                          1       6    5py               5.368566       0.000000
                                                         1.983069       0.000000
                                                         0.697835       0.000000
                                                         0.243097       0.000000
                                                         0.081287       0.061868
                          1       6    5pz               5.368566       0.000000
                                                         1.983069       0.000000
                                                         0.697835       0.000000
                                                         0.243097       0.000000
                                                         0.081287       0.061868

                          2       1    3dx2              0.550000       0.578155
                          2       1    3dxy              0.550000       1.001394
                          2       1    3dxz              0.550000       1.001394
                          2       1    3dy2              0.550000       0.578155
                          2       1    3dyz              0.550000       1.001394
                          2       1    3dz2              0.550000       0.578155

       Atomic covalent radius [Angstrom]:                                  0.770

       Atomic van der Waals radius [Angstrom]:                             1.700

     GTH Potential information for                                       GTH-PBE

       Description:                       Goedecker-Teter-Hutter pseudopotential
                                           Goedecker et al., PRB 54, 1703 (1996)
                                          Hartwigsen et al., PRB 58, 3641 (1998)
                                                      Krack, TCA 114, 145 (2005)

       Gaussian exponent of the core charge distribution:               4.364419
       Electronic configuration (s p d ...):                               2   2

       Parameters of the local part of the GTH pseudopotential:

                          rloc        C1          C2          C3          C4
                        0.338471   -8.803674    1.339211

       Parameters of the non-local part of the GTH pseudopotential:

                   l      r(l)      h(i,j,l)

                   0    0.302576    9.622487
                   1    0.291507

  4. Atomic kind: H                                     Number of atoms:      15

     Orbital Basis Set                                               TZVP-GTH-q1

       Number of orbital shell sets:                                           2
       Number of orbital shells:                                               4
       Number of primitive Cartesian functions:                                6
       Number of Cartesian basis functions:                                    6
       Number of spherical basis functions:                                    6
       Norm type:                                                              2

       Normalised Cartesian orbitals:

                        Set   Shell   Orbital            Exponent    Coefficient

                          1       1    1s               10.882724      -0.071340
                                                         3.096875      -0.104410
                                                         0.987452      -0.135375
                                                         0.345069      -0.133923
                                                         0.149269      -0.073092

                          1       2    2s               10.882724       0.000000
                                                         3.096875       0.000000
                                                         0.987452       0.000000
                                                         0.345069       0.320878
                                                         0.149269       0.000000

                          1       3    3s               10.882724       0.000000
                                                         3.096875       0.000000
                                                         0.987452       0.000000
                                                         0.345069       0.000000
                                                         0.149269       0.171154

                          2       1    2px               0.727000       0.956881
                          2       1    2py               0.727000       0.956881
                          2       1    2pz               0.727000       0.956881

       Atomic covalent radius [Angstrom]:                                  0.320

       Atomic van der Waals radius [Angstrom]:                             1.090

     GTH Potential information for                                       GTH-PBE

       Description:                       Goedecker-Teter-Hutter pseudopotential
                                           Goedecker et al., PRB 54, 1703 (1996)
                                          Hartwigsen et al., PRB 58, 3641 (1998)
                                                      Krack, TCA 114, 145 (2005)

       Gaussian exponent of the core charge distribution:              12.500000
       Electronic configuration (s p d ...):                                   1

       Parameters of the local part of the GTH pseudopotential:

                          rloc        C1          C2          C3          C4
                        0.200000   -4.178900    0.724463

  5. Atomic kind: F                                     Number of atoms:       6

     Orbital Basis Set                                               TZVP-GTH-q7

       Number of orbital shell sets:                                           2
       Number of orbital shells:                                               7
       Number of primitive Cartesian functions:                                6
       Number of Cartesian basis functions:                                   18
       Number of spherical basis functions:                                   17
       Norm type:                                                              2

       Normalised Cartesian orbitals:

                        Set   Shell   Orbital            Exponent    Coefficient

                          1       1    2s               13.162513       0.499791
                                                         4.797202       0.231391
                                                         1.704998      -0.412780
                                                         0.581447      -0.293250
                                                         0.184258      -0.033277

                          1       2    3s               13.162513       0.000000
                                                         4.797202       0.000000
                                                         1.704998       0.000000
                                                         0.581447       0.474562
                                                         0.184258       0.000000

                          1       3    4s               13.162513       0.000000
                                                         4.797202       0.000000
                                                         1.704998       0.000000
                                                         0.581447       0.000000
                                                         0.184258       0.200438

                          1       4    3px              13.162513      -2.230542
                                                         4.797202      -1.972071
                                                         1.704998      -1.037904
                                                         0.581447      -0.300489
                                                         0.184258      -0.039017
                          1       4    3py              13.162513      -2.230542
                                                         4.797202      -1.972071
                                                         1.704998      -1.037904
                                                         0.581447      -0.300489
                                                         0.184258      -0.039017
                          1       4    3pz              13.162513      -2.230542
                                                         4.797202      -1.972071
                                                         1.704998      -1.037904
                                                         0.581447      -0.300489
                                                         0.184258      -0.039017

                          1       5    4px              13.162513       0.000000
                                                         4.797202       0.000000
                                                         1.704998       0.000000
                                                         0.581447       0.723732
                                                         0.184258       0.000000
                          1       5    4py              13.162513       0.000000
                                                         4.797202       0.000000
                                                         1.704998       0.000000
                                                         0.581447       0.723732
                                                         0.184258       0.000000
                          1       5    4pz              13.162513       0.000000
                                                         4.797202       0.000000
                                                         1.704998       0.000000
                                                         0.581447       0.723732
                                                         0.184258       0.000000

                          1       6    5px              13.162513       0.000000
                                                         4.797202       0.000000
                                                         1.704998       0.000000
                                                         0.581447       0.000000
                                                         0.184258       0.172077
                          1       6    5py              13.162513       0.000000
                                                         4.797202       0.000000
                                                         1.704998       0.000000
                                                         0.581447       0.000000
                                                         0.184258       0.172077
                          1       6    5pz              13.162513       0.000000
                                                         4.797202       0.000000
                                                         1.704998       0.000000
                                                         0.581447       0.000000
                                                         0.184258       0.172077

                          2       1    3dx2              1.640000       3.911886
                          2       1    3dxy              1.640000       6.775585
                          2       1    3dxz              1.640000       6.775585
                          2       1    3dy2              1.640000       3.911886
                          2       1    3dyz              1.640000       6.775585
                          2       1    3dz2              1.640000       3.911886

       Atomic covalent radius [Angstrom]:                                  0.720

       Atomic van der Waals radius [Angstrom]:                             1.470

     GTH Potential information for                                       GTH-PBE

       Description:                       Goedecker-Teter-Hutter pseudopotential
                                           Goedecker et al., PRB 54, 1703 (1996)
                                          Hartwigsen et al., PRB 58, 3641 (1998)
                                                      Krack, TCA 114, 145 (2005)

       Gaussian exponent of the core charge distribution:              10.823746
       Electronic configuration (s p d ...):                               2   5

       Parameters of the local part of the GTH pseudopotential:

                          rloc        C1          C2          C3          C4
                        0.214930  -21.573028    3.199776

       Parameters of the non-local part of the GTH pseudopotential:

                   l      r(l)      h(i,j,l)

                   0    0.194684   23.743540
                   1    0.186156


 MOLECULE KIND INFORMATION


 All atoms are their own molecule, skipping detailed information


 TOTAL NUMBERS AND MAXIMUM NUMBERS

  Total number of            - Atomic kinds:                                   5
                             - Atoms:                                         47
                             - Shell sets:                                    94
                             - Shells:                                       284
                             - Primitive Cartesian functions:                282
                             - Cartesian basis functions:                    666
                             - Spherical basis functions:                    634

  Maximum angular momentum of- Orbital basis functions:                        2
                             - Local part of the GTH pseudopotential:          2
                             - Non-local part of the GTH pseudopotential:      0


 MODULE QUICKSTEP: ATOMIC COORDINATES IN ANGSTROM

   Atom Kind Element         X             Y             Z       Z(eff)     Mass
      1    1 O     8     15.579922      9.769612     12.523810   6.0000  15.9994
      2    2 N     7     13.537110     14.848644     15.748597   5.0000  14.0067
      3    3 C     6     11.894758      9.076880      8.876624   4.0000  12.0107
      4    4 H     1     11.497357      9.958531      9.381216   1.0000   1.0079
      5    3 C     6     11.217664      8.563556      7.774943   4.0000  12.0107
      6    4 H     1     10.292646      9.025377      7.430268   1.0000   1.0079
      7    3 C     6     11.722828      7.437645      7.110253   4.0000  12.0107
      8    3 C     6     12.907552      6.830630      7.542320   4.0000  12.0107
      9    4 H     1     13.291827      5.953682      7.021044   1.0000   1.0079
     10    3 C     6     13.578799      7.348703      8.643590   4.0000  12.0107
     11    4 H     1     14.507173      6.885086      8.980457   1.0000   1.0079
     12    3 C     6     13.087032      8.476180      9.334593   4.0000  12.0107
     13    3 C     6     13.850891      8.962653     10.472749   4.0000  12.0107
     14    4 H     1     14.765419      8.407975     10.713134   1.0000   1.0079
     15    3 C     6     13.579248     10.025492     11.261962   4.0000  12.0107
     16    4 H     1     12.700546     10.650685     11.097578   1.0000   1.0079
     17    3 C     6     14.520752     10.392915     12.345655   4.0000  12.0107
     18    3 C     6     14.192031     11.563842     13.204384   4.0000  12.0107
     19    3 C     6     15.250536     12.159566     13.919306   4.0000  12.0107
     20    4 H     1     16.247709     11.734063     13.806706   1.0000   1.0079
     21    3 C     6     15.026793     13.262239     14.726970   4.0000  12.0107
     22    4 H     1     15.841798     13.755178     15.258113   1.0000   1.0079
     23    3 C     6     13.717217     13.753772     14.900030   4.0000  12.0107
     24    3 C     6     12.651476     13.163077     14.192303   4.0000  12.0107
     25    4 H     1     11.646177     13.576339     14.291380   1.0000   1.0079
     26    3 C     6     12.894694     12.089850     13.339162   4.0000  12.0107
     27    4 H     1     12.056554     11.647119     12.798591   1.0000   1.0079
     28    3 C     6     12.564666     14.842176     16.593675   4.0000  12.0107
     29    4 H     1     11.904389     13.963065     16.717070   1.0000   1.0079
     30    3 C     6     12.313190     15.982931     17.469250   4.0000  12.0107
     31    3 C     6     13.100251     17.146027     17.369503   4.0000  12.0107
     32    4 H     1     13.890453     17.176064     16.619364   1.0000   1.0079
     33    3 C     6     12.866030     18.219972     18.216748   4.0000  12.0107
     34    4 H     1     13.469448     19.124759     18.143222   1.0000   1.0079
     35    3 C     6     11.838564     18.139063     19.169509   4.0000  12.0107
     36    3 C     6     11.049996     16.988743     19.281259   4.0000  12.0107
     37    4 H     1     10.256050     16.939728     20.026445   1.0000   1.0079
     38    3 C     6     11.288896     15.913408     18.427748   4.0000  12.0107
     39    4 H     1     10.681991     15.008494     18.502277   1.0000   1.0079
     40    3 C     6     11.046171      6.894898      5.886288   4.0000  12.0107
     41    3 C     6     11.627814     19.280274     20.119761   4.0000  12.0107
     42    5 F     9      9.752291      7.334629      5.755581   7.0000  18.9984
     43    5 F     9     11.707877      7.271971      4.738757   7.0000  18.9984
     44    5 F     9     11.027574      5.518553      5.888504   7.0000  18.9984
     45    5 F     9     10.322693     19.393374     20.519415   7.0000  18.9984
     46    5 F     9     11.981873     20.481447     19.568749   7.0000  18.9984
     47    5 F     9     12.384187     19.124036     21.261243   7.0000  18.9984



 SCF PARAMETERS         Density guess:                                    ATOMIC
                        --------------------------------------------------------
                        max_scf:                                              50
                        max_scf_history:                                       0
                        max_diis:                                              4
                        --------------------------------------------------------
                        eps_scf:                                        1.00E-05
                        eps_scf_history:                                0.00E+00
                        eps_diis:                                       1.00E-01
                        eps_eigval:                                     1.00E-05
                        --------------------------------------------------------
                        level_shift [a.u.]:                             0.000000
                        --------------------------------------------------------
                        Outer loop SCF in use 
                        No variables optimised in outer loop
                        eps_scf                                         1.00E-05
                        max_scf                                               20
                        No outer loop optimization
                        step_size                                       5.00E-01

 PW_GRID| Information for grid number                                          1
 PW_GRID| Grid distributed over                                    90 processors
 PW_GRID| Real space group dimensions                                    90    1
 PW_GRID| the grid is blocked:                                                NO
 PW_GRID| Cutoff [a.u.]                                                    300.0
 PW_GRID| spherical cutoff:                                                   NO
 PW_GRID|   Bounds   1           -192     191                Points:         384
 PW_GRID|   Bounds   2           -192     191                Points:         384
 PW_GRID|   Bounds   3           -192     191                Points:         384
 PW_GRID| Volume element (a.u.^3)  0.2095E-02     Volume (a.u.^3)    118608.7286
 PW_GRID| Grid span                                                    FULLSPACE
 PW_GRID|   Distribution                         Average         Max         Min
 PW_GRID|   G-Vectors                           629145.6      629376      628992
 PW_GRID|   G-Rays                                1638.4        1639        1638
 PW_GRID|   Real Space Points                   629145.6      737280      589824

 PW_GRID| Information for grid number                                          2
 PW_GRID| Number of the reference grid                                         1
 PW_GRID| Grid distributed over                                    90 processors
 PW_GRID| Real space group dimensions                                    90    1
 PW_GRID| the grid is blocked:                                                NO
 PW_GRID| Cutoff [a.u.]                                                    100.0
 PW_GRID| spherical cutoff:                                                   NO
 PW_GRID|   Bounds   1           -112     112                Points:         225
 PW_GRID|   Bounds   2           -112     112                Points:         225
 PW_GRID|   Bounds   3           -112     112                Points:         225
 PW_GRID| Volume element (a.u.^3)  0.1041E-01     Volume (a.u.^3)    118608.7286
 PW_GRID| Grid span                                                    FULLSPACE
 PW_GRID|   Distribution                         Average         Max         Min
 PW_GRID|   G-Vectors                           126562.5      127125      126000
 PW_GRID|   G-Rays                                 562.5         565         560
 PW_GRID|   Real Space Points                   126562.5      151875      101250

 PW_GRID| Information for grid number                                          3
 PW_GRID| Number of the reference grid                                         1
 PW_GRID| Grid distributed over                                    90 processors
 PW_GRID| Real space group dimensions                                    90    1
 PW_GRID| the grid is blocked:                                                NO
 PW_GRID| Cutoff [a.u.]                                                     33.3
 PW_GRID| spherical cutoff:                                                   NO
 PW_GRID|   Bounds   1            -64      63                Points:         128
 PW_GRID|   Bounds   2            -64      63                Points:         128
 PW_GRID|   Bounds   3            -64      63                Points:         128
 PW_GRID| Volume element (a.u.^3)  0.5656E-01     Volume (a.u.^3)    118608.7286
 PW_GRID| Grid span                                                    FULLSPACE
 PW_GRID|   Distribution                         Average         Max         Min
 PW_GRID|   G-Vectors                            23301.7       23424       23168
 PW_GRID|   G-Rays                                 182.0         183         181
 PW_GRID|   Real Space Points                    23301.7       32768       16384

 PW_GRID| Information for grid number                                          4
 PW_GRID| Number of the reference grid                                         1
 PW_GRID| Grid distributed over                                    90 processors
 PW_GRID| Real space group dimensions                                     9   10
 PW_GRID| the grid is blocked:                                                NO
 PW_GRID| Cutoff [a.u.]                                                     11.1
 PW_GRID| spherical cutoff:                                                   NO
 PW_GRID|   Bounds   1            -37      37                Points:          75
 PW_GRID|   Bounds   2            -37      37                Points:          75
 PW_GRID|   Bounds   3            -37      37                Points:          75
 PW_GRID| Volume element (a.u.^3)  0.2811         Volume (a.u.^3)    118608.7286
 PW_GRID| Grid span                                                    FULLSPACE
 PW_GRID|   Distribution                         Average         Max         Min
 PW_GRID|   G-Vectors                             4687.5        4875        4500
 PW_GRID|   G-Rays                                  62.5          65          60
 PW_GRID|   Real Space Points                     4687.5        5400        4200

 PW_GRID| Information for grid number                                          5
 PW_GRID| Number of the reference grid                                         1
 PW_GRID| Grid distributed over                                    90 processors
 PW_GRID| Real space group dimensions                                     9   10
 PW_GRID| the grid is blocked:                                                NO
 PW_GRID| Cutoff [a.u.]                                                      3.7
 PW_GRID| spherical cutoff:                                                   NO
 PW_GRID|   Bounds   1            -22      22                Points:          45
 PW_GRID|   Bounds   2            -22      22                Points:          45
 PW_GRID|   Bounds   3            -22      22                Points:          45
 PW_GRID| Volume element (a.u.^3)   1.302         Volume (a.u.^3)    118608.7286
 PW_GRID| Grid span                                                    FULLSPACE
 PW_GRID|   Distribution                         Average         Max         Min
 PW_GRID|   G-Vectors                             1012.5        1125         900
 PW_GRID|   G-Rays                                  22.5          25          20
 PW_GRID|   Real Space Points                     1012.5        1125         900

 PW_GRID| Information for grid number                                          6
 PW_GRID| Number of the reference grid                                         1
 PW_GRID| Grid distributed over                                    90 processors
 PW_GRID| Real space group dimensions                                     9   10
 PW_GRID| the grid is blocked:                                                NO
 PW_GRID| Cutoff [a.u.]                                                      1.2
 PW_GRID| spherical cutoff:                                                   NO
 PW_GRID|   Bounds   1            -12      12                Points:          25
 PW_GRID|   Bounds   2            -12      12                Points:          25
 PW_GRID|   Bounds   3            -12      12                Points:          25
 PW_GRID| Volume element (a.u.^3)   7.591         Volume (a.u.^3)    118608.7286
 PW_GRID| Grid span                                                    FULLSPACE
 PW_GRID|   Distribution                         Average         Max         Min
 PW_GRID|   G-Vectors                              173.6         200         150
 PW_GRID|   G-Rays                                   6.9           8           6
 PW_GRID|   Real Space Points                      173.6         225         100

 POISSON| Solver                                                         WAVELET
 POISSON| Wavelet| Scaling function                                           40
 POISSON| Periodicity                                                       NONE

 RS_GRID| Information for grid number                                          1
 RS_GRID|   Bounds   1           -192     191                Points:         384
 RS_GRID|   Bounds   2           -192     191                Points:         384
 RS_GRID|   Bounds   3           -192     191                Points:         384
 RS_GRID| Real space distribution over                                  3 groups
 RS_GRID| Real space distribution along direction                              1
 RS_GRID| Border size                                                         28
 RS_GRID| Real space distribution over                                  5 groups
 RS_GRID| Real space distribution along direction                              2
 RS_GRID| Border size                                                         28
 RS_GRID| Real space distribution over                                  6 groups
 RS_GRID| Real space distribution along direction                              3
 RS_GRID| Border size                                                         28
 RS_GRID|   Distribution                         Average         Max         Min
 RS_GRID|   Planes                                 184.0         184         184
 RS_GRID|   Distribution                         Average         Max         Min
 RS_GRID|   Planes                                 132.8         133         132
 RS_GRID|   Distribution                         Average         Max         Min
 RS_GRID|   Planes                                 120.0         120         120

 RS_GRID| Information for grid number                                          2
 RS_GRID|   Bounds   1           -112     112                Points:         225
 RS_GRID|   Bounds   2           -112     112                Points:         225
 RS_GRID|   Bounds   3           -112     112                Points:         225
 RS_GRID| Real space distribution over                                  3 groups
 RS_GRID| Real space distribution along direction                              1
 RS_GRID| Border size                                                         29
 RS_GRID| Real space distribution over                                  5 groups
 RS_GRID| Real space distribution along direction                              2
 RS_GRID| Border size                                                         29
 RS_GRID| Real space distribution over                                  6 groups
 RS_GRID| Real space distribution along direction                              3
 RS_GRID| Border size                                                         29
 RS_GRID|   Distribution                         Average         Max         Min
 RS_GRID|   Planes                                 133.0         133         133
 RS_GRID|   Distribution                         Average         Max         Min
 RS_GRID|   Planes                                 103.0         103         103
 RS_GRID|   Distribution                         Average         Max         Min
 RS_GRID|   Planes                                  95.5          96          95

 RS_GRID| Information for grid number                                          3
 RS_GRID|   Bounds   1            -64      63                Points:         128
 RS_GRID|   Bounds   2            -64      63                Points:         128
 RS_GRID|   Bounds   3            -64      63                Points:         128
 RS_GRID| Real space fully replicated
 RS_GRID| Group size                                                           1

 RS_GRID| Information for grid number                                          4
 RS_GRID|   Bounds   1            -37      37                Points:          75
 RS_GRID|   Bounds   2            -37      37                Points:          75
 RS_GRID|   Bounds   3            -37      37                Points:          75
 RS_GRID| Real space fully replicated
 RS_GRID| Group size                                                           1

 RS_GRID| Information for grid number                                          5
 RS_GRID|   Bounds   1            -22      22                Points:          45
 RS_GRID|   Bounds   2            -22      22                Points:          45
 RS_GRID|   Bounds   3            -22      22                Points:          45
 RS_GRID| Real space fully replicated
 RS_GRID| Group size                                                           1

 RS_GRID| Information for grid number                                          6
 RS_GRID|   Bounds   1            -12      12                Points:          25
 RS_GRID|   Bounds   2            -12      12                Points:          25
 RS_GRID|   Bounds   3            -12      12                Points:          25
 RS_GRID| Real space fully replicated
 RS_GRID| Group size                                                           1

 Number of electrons:                                                        164
 Number of occupied orbitals:                                                 82
 Number of molecular orbitals:                                                82

 Number of orbital functions:                                                634
 Number of independent orbital functions:                                    634

 Extrapolation method: initial_guess

 Atomic guess: The first density matrix is obtained in terms of atomic orbitals
               and electronic configurations assigned to each atomic kind

 Guess for atomic kind: O

 Electronic structure
    Total number of core electrons                                          2.00
    Total number of valence electrons                                       6.00
    Total number of electrons                                               8.00
    Multiplicity                                                   not specified
    S   [  2.00] 2.00
    P      4.00


 *******************************************************************************
                  Iteration          Convergence                     Energy [au]
 *******************************************************************************
                          1        0.577491                     -15.568616633298
                          2        0.659429                     -15.574385699476
                          3        0.252248E-01                 -15.656217861375
                          4        0.156627E-02                 -15.656397101845
                          5        0.161710E-04                 -15.656397459300
                          6        0.346702E-06                 -15.656397459369

 Energy components [Hartree]           Total Energy ::          -15.656397459369
                                        Band Energy ::           -3.001886830830
                                     Kinetic Energy ::           11.780460877478
                                   Potential Energy ::          -27.436858336847
                                      Virial (-V/T) ::            2.329014002271
                                        Core Energy ::          -26.138300535672
                                          XC Energy ::           -3.153767183935
                                     Coulomb Energy ::           13.635670260237
                       Total Pseudopotential Energy ::          -37.953932103637
                       Local Pseudopotential Energy ::          -39.253303299158
                    Nonlocal Pseudopotential Energy ::            1.299371195522
                                        Confinement ::            0.351706904867

 Orbital energies  State     L     Occupation   Energy[a.u.]          Energy[eV]

                       1     0          2.000      -0.864888          -23.534800

                       1     1          4.000      -0.318028           -8.653974


 Total Electron Density at R=0:                                         0.000125

 Guess for atomic kind: N

 Electronic structure
    Total number of core electrons                                          2.00
    Total number of valence electrons                                       5.00
    Total number of electrons                                               7.00
    Multiplicity                                                   not specified
    S   [  2.00] 2.00
    P      3.00


 *******************************************************************************
                  Iteration          Convergence                     Energy [au]
 *******************************************************************************
                          1        0.271988                      -9.512616220151
                          2        0.247955                      -9.522554716740
                          3        0.504788E-02                  -9.546164505587
                          4        0.458466E-03                  -9.546178122964
                          5        0.244989E-05                  -9.546178176956
                          6        0.114677E-05                  -9.546178176959
                          7        0.269739E-08                  -9.546178176959

 Energy components [Hartree]           Total Energy ::           -9.546178176959
                                        Band Energy ::           -2.056052167563
                                     Kinetic Energy ::            6.750514589450
                                   Potential Energy ::          -16.296692766410
                                      Virial (-V/T) ::            2.414140811114
                                        Core Energy ::          -15.541752718363
                                          XC Energy ::           -2.162895801542
                                     Coulomb Energy ::            8.158470342945
                       Total Pseudopotential Energy ::          -22.329540620284
                       Local Pseudopotential Energy ::          -23.278432410601
                    Nonlocal Pseudopotential Energy ::            0.948891790316
                                        Confinement ::            0.372733124714

 Orbital energies  State     L     Occupation   Energy[a.u.]          Energy[eV]

                       1     0          2.000      -0.663798          -18.062862

                       1     1          3.000      -0.242819           -6.607433


 Total Electron Density at R=0:                                         0.000098

 Guess for atomic kind: C

 Electronic structure
    Total number of core electrons                                          2.00
    Total number of valence electrons                                       4.00
    Total number of electrons                                               6.00
    Multiplicity                                                   not specified
    S   [  2.00] 2.00
    P      2.00


 *******************************************************************************
                  Iteration          Convergence                     Energy [au]
 *******************************************************************************
                          1        0.989032E-01                  -5.274804028878
                          2        0.626412E-01                  -5.279859793703
                          3        0.811567E-03                  -5.283752722279
                          4        0.832201E-04                  -5.283753018164
                          5        0.104768E-06                  -5.283753025329

 Energy components [Hartree]           Total Energy ::           -5.283753025329
                                        Band Energy ::           -1.317239350806
                                     Kinetic Energy ::            3.389251109490
                                   Potential Energy ::           -8.673004134819
                                      Virial (-V/T) ::            2.558973606451
                                        Core Energy ::           -8.295157719552
                                          XC Energy ::           -1.377263451845
                                     Coulomb Energy ::            4.388668146068
                       Total Pseudopotential Energy ::          -11.718697935603
                       Local Pseudopotential Energy ::          -12.368442815308
                    Nonlocal Pseudopotential Energy ::            0.649744879704
                                        Confinement ::            0.342891065612

 Orbital energies  State     L     Occupation   Energy[a.u.]          Energy[eV]

                       1     0          2.000      -0.484434          -13.182123

                       1     1          2.000      -0.174186           -4.739829


 Total Electron Density at R=0:                                         0.000068

 Guess for atomic kind: H

 Electronic structure
    Total number of core electrons                                          0.00
    Total number of valence electrons                                       1.00
    Total number of electrons                                               1.00
    Multiplicity                                                   not specified
    S      1.00


 *******************************************************************************
                  Iteration          Convergence                     Energy [au]
 *******************************************************************************
                          1        0.440266E-02                  -0.423513531970
                          2        0.325828E-03                  -0.423525175186
                          3        0.252148E-04                  -0.423525335541
                          4        0.637775E-08                  -0.423525336420

 Energy components [Hartree]           Total Energy ::           -0.423525336420
                                        Band Energy ::           -0.195262559383
                                     Kinetic Energy ::            0.470173284674
                                   Potential Energy ::           -0.893698621094
                                      Virial (-V/T) ::            1.900785625696
                                        Core Energy ::           -0.479699819139
                                          XC Energy ::           -0.247097449670
                                     Coulomb Energy ::            0.303271932388
                       Total Pseudopotential Energy ::           -0.967738859557
                       Local Pseudopotential Energy ::           -0.967738859557
                    Nonlocal Pseudopotential Energy ::            0.000000000000
                                        Confinement ::            0.178657557441

 Orbital energies  State     L     Occupation   Energy[a.u.]          Energy[eV]

                       1     0          1.000      -0.195263           -5.313364


 Total Electron Density at R=0:                                         0.240075

 Guess for atomic kind: F

 Electronic structure
    Total number of core electrons                                          2.00
    Total number of valence electrons                                       7.00
    Total number of electrons                                               9.00
    Multiplicity                                                   not specified
    S   [  2.00] 2.00
    P      5.00


 *******************************************************************************
                  Iteration          Convergence                     Energy [au]
 *******************************************************************************
                          1         1.09128                     -23.755166850180
                          2         1.38433                     -23.734427909305
                          3        0.711476E-01                 -23.938311129009
                          4        0.418185E-02                 -23.939149765174
                          5        0.598928E-04                 -23.939151408555
                          6        0.262546E-05                 -23.939151409108
                          7        0.610895E-07                 -23.939151409109

 Energy components [Hartree]           Total Energy ::          -23.939151409109
[...]
 flops    86 x    32 x    34            229054464       0.0%    100.0%      0.0%
 flops    86 x    32 x    17            229054464       0.0%    100.0%      0.0%
 flops    32 x    32 x    32            232783872       0.0%    100.0%      0.0%
 flops   102 x    32 x    23            245035008       0.0%    100.0%      0.0%
 flops    17 x     1 x    17            260327732       0.0%    100.0%      0.0%
 flops   102 x    32 x    17            271669248       0.0%    100.0%      0.0%
 flops   102 x    32 x    34            271669248       0.0%    100.0%      0.0%
 flops    17 x     6 x    18            280180944       0.0%    100.0%      0.0%
 flops     6 x    17 x    18            292287528       0.0%    100.0%      0.0%
 flops    32 x    32 x    23            325582848       0.0%    100.0%      0.0%
 flops    32 x    32 x    17            361529344       0.0%    100.0%      0.0%
 flops    32 x    32 x    34            364871680       0.0%    100.0%      0.0%
 flops    91 x    32 x    32            372736000       0.0%    100.0%      0.0%
 flops    91 x    32 x    23            437219328       0.0%    100.0%      0.0%
 flops    91 x    32 x    17            484743168       0.0%    100.0%      0.0%
 flops    91 x    32 x    34            484743168       0.0%    100.0%      0.0%
 flops     6 x    32 x     6            682795008       0.0%    100.0%      0.0%
 flops    17 x     6 x    32            996198912       0.0%    100.0%      0.0%
 flops     6 x    17 x    32           1039244544       0.0%    100.0%      0.0%
 flops    17 x    18 x     6           1204493112       0.0%    100.0%      0.0%
 flops     6 x    18 x    17           1204493112       0.0%    100.0%      0.0%
 flops    17 x    17 x    18           1896409908       0.0%    100.0%      0.0%
 flops    17 x    32 x     6           4356108288       0.0%    100.0%      0.0%
 flops     6 x    32 x    17           4356108288       0.0%    100.0%      0.0%
 flops    17 x    17 x    32           6742790784       0.0%    100.0%      0.0%
 flops    17 x    18 x    17           7675759080       0.0%    100.0%      0.0%
 flops    17 x    32 x    17          27758204928       0.0%    100.0%      0.0%
 flops inhomo. stacks                  2509435666     100.0%      0.0%      0.0%
 flops total                        72.315865E+09       3.5%     96.5%      0.0%
 flops max/rank                      4.544769E+09       4.8%     95.2%      0.0%
 matmuls inhomo. stacks                     51837     100.0%      0.0%      0.0%
 matmuls total                            6983277       0.7%     99.3%      0.0%
 number of processed stacks               2860940       1.8%     98.2%      0.0%
 average stack size                                     1.0       2.5       0.0
 marketing flops                   109.004079E+09
 -------------------------------------------------------------------------------
 # multiplications                           6258
 max memory usage/rank               1.102279E+09
 # max total images/rank                        5
 # max 3D layers                                1
 # MPI messages exchanged                29850660
 MPI messages size (bytes):
  total size                        67.916485E+09
  min size                           0.000000E+00
  max size                          32.256000E+03
  average size                       2.275209E+03
 MPI breakdown and total messages size (bytes):
             size <=      128            23596942                  5431208
       128 < size <=     8192             2596741              10428132240
      8192 < size <=    32768             3656977              57478927376
     32768 < size <=   131072                   0                        0
    131072 < size <=  4194304                   0                        0
   4194304 < size <= 16777216                   0                        0
  16777216 < size                               0                        0
 -------------------------------------------------------------------------------

 *** WARNING in dbcsr_mm.F:291 :: Using a non-square number of MPI ranks ***
 *** might lead to poor performance. Used ranks: 90 Suggested: 81 169    ***

 -------------------------------------------------------------------------------
 -                                                                             -
 -                      DBCSR MESSAGE PASSING PERFORMANCE                      -
 -                                                                             -
 -------------------------------------------------------------------------------
 ROUTINE             CALLS      AVE VOLUME [Bytes]
 MP_Bcast              189                     12.
 MP_Allreduce        30040                      9.
 MP_Alltoall         40257                  20638.
 MP_ISend           700648                   1482.
 MP_IRecv           698754                   1327.
 -------------------------------------------------------------------------------

 -------------------------------------------------------------------------------
 -                                                                             -
 -                                DBM STATISTICS                               -
 -                                                                             -
 -------------------------------------------------------------------------------
    M  x    N  x    K                                          COUNT     PERCENT
 -------------------------------------------------------------------------------

 -------------------------------------------------------------------------------
 -                                                                             -
 -                                GRID STATISTICS                              -
 -                                                                             -
 -------------------------------------------------------------------------------
 LP    KERNEL             BACKEND                              COUNT     PERCENT
 2     collocate ortho    CPU                                1727692      23.46%
 2     integrate ortho    CPU                                1714440      23.28%
 1     collocate ortho    CPU                                1082410      14.70%
 1     integrate ortho    CPU                                1073800      14.58%
 3     collocate ortho    CPU                                 573780       7.79%
 3     integrate ortho    CPU                                 569400       7.73%
 0     collocate ortho    CPU                                 253766       3.45%
 0     integrate ortho    CPU                                 251680       3.42%
 4     collocate ortho    CPU                                  52400       0.71%
 4     integrate ortho    CPU                                  52000       0.71%
 0     collocate general  CPU                                   8460       0.11%
 0     integrate general  CPU                                   4230       0.06%
 -------------------------------------------------------------------------------

 MEMORY| Estimated peak process memory [MiB]                                1057

 -------------------------------------------------------------------------------
 ----                             MULTIGRID INFO                            ----
 -------------------------------------------------------------------------------
 count for grid        1:        6502243          cutoff [a.u.]          300.00
 count for grid        2:        2596979          cutoff [a.u.]          100.00
 count for grid        3:        1360685          cutoff [a.u.]           33.33
 count for grid        4:         256977          cutoff [a.u.]           11.11
 count for grid        5:           7560          cutoff [a.u.]            3.70
 count for grid        6:              0          cutoff [a.u.]            1.23
 total gridlevel count  :       10724444

 -------------------------------------------------------------------------------
 -                                                                             -
 -                         MESSAGE PASSING PERFORMANCE                         -
 -                                                                             -
 -------------------------------------------------------------------------------

 ROUTINE             CALLS      AVE VOLUME [Bytes]
 MP_Group                6
 MP_Bcast             4520                 194431.
 MP_Allreduce        34055                    149.
 MP_Sync               248
 MP_Alltoall         16508               22563691.
 MP_SendRecv         94340                  78739.
 MP_ISendRecv        92560                  79036.
 MP_Wait            144686
 MP_comm_split         197
 MP_ISend            44316                 425111.
 MP_IRecv            47202                 398479.
 MP_Write_All            2                7766016.
 -------------------------------------------------------------------------------


 -------------------------------------------------------------------------------
 -                                                                             -
 -                           R E F E R E N C E S                               -
 -                                                                             -
 -------------------------------------------------------------------------------
 
 CP2K version 2023.2, the CP2K developers group (2023).
 CP2K is freely available from https://www.cp2k.org/ .

 Kuehne,Thomas D.; Iannuzzi,Marcella; Del Ben,Mauro;
 Rybkin,Vladimir V.; Seewald,Patrick; Stein,Frederick; Laino,Teodoro;
 Khaliullin,Rustam Z.; Schuett,Ole; Schiffmann,Florian; Golze,Dorothea;
 Wilhelm,Jan; Chulkov,Sergey; Bani-Hashemian,Mohammad Hossein;
 Weber,Valery; Borstnik,Urban; Taillefumier,Mathieu;
 Jakobovits,Alice Shoshana; Lazzaro,Alfio; Pabst,Hans; Mueller,Tiziano;
 Schade,Robert; Guidon,Manuel; Andermatt,Samuel; Holmberg,Nico;
 Schenter,Gregory K.; Hehn,Anna; Bussy,Augustin; Belleflamme,Fabian;
 Tabacchi,Gloria; Gloess,Andreas; Lass,Michael; Bethune,Iain;
 Mundy,Christopher J.; Plessl,Christian; Watkins,Matt;
 VandeVondele,Joost; Krack,Matthias; Hutter,Juerg. 
 The Journal of Chemical Physics, 152 (19), (2020). 
 CP2K: An electronic structure and molecular dynamics software package -
 Quickstep: Efficient and accurate electronic structure calculations.
 https://doi.org/10.1063/5.0007045

 Yin, Wen-Jin; Krack, Matthias; Li, Xibo; Chen, Li-Zhen; Liu, Li-Min. 
 Prog. Nat. Sci., 27 (2), 283-288 (2017). 
 Periodic continuum solvation model integrated with first-principles
 calculations for solid surfaces.
 https://doi.org/10.1016/j.pnsc.2017.03.003

 Goerigk, Lars; Hansen, Andreas; Bauer, Christoph; Ehrlich, Stephan;
 Najibi, Asim; Grimme, Stefan. , 19 (48), (2017). 
 A look at the density functional theory zoo with the advanced GMTKN55 database
 for general main group thermochemistry, kinetics and noncovalent interactions.
 https://doi.org/10.1039/C7CP04913G

 Schuett, Ole; Messmer, Peter; Hutter, Juerg; VandeVondele, Joost. 
 Electronic Structure Calculations on Graphics Processing Units, John
 Wiley & Sons, Ltd, 173-190 (2016). 
 GPU-Accelerated Sparse Matrix-Matrix Multiplication for
 Linear Scaling Density Functional Theory.
 https://doi.org/10.1002/9781118670712.ch8

 Heinecke, A; Henry, G; Hutchinson, M; Pabst, H. 
 Proceedings of Intl. Supercomputing Conference, 981-991 (2016). 
 LIBXSMM: Accelerating Small Matrix Multiplications
 by Runtime Code Generation.
 https://doi.org/10.1109/SC.2016.83

 Borstnik, U; VandeVondele, J; Weber, V; Hutter, J. 
 PARALLEL COMPUTING, 40 (5-6), 47-58 (2014). 
 Sparse matrix multiplication: The distributed block-compressed sparse
 row library.
 https://doi.org/10.1016/j.parco.2014.03.012

 Hutter, J; Iannuzzi, M; Schiffmann, F; VandeVondele, J. 
 WIREs Comput Mol Sci., 4 (1), 15-25 (2014). 
 CP2K: atomistic simulations of condensed matter systems.
 https://doi.org/10.1002/wcms.1159

 Grimme, S; Ehrlich, S; Goerigk, L. 
 JOURNAL OF COMPUTATIONAL CHEMISTRY, 32, 1456 (2011). 
 Effect of the damping function in dispersion corrected density functional theory.
 https://doi.org/10.1002/jcc.21759

 Grimme, S; Antony, J; Ehrlich, S; Krieg, H. 
 JOURNAL OF CHEMICAL PHYSICS, 132 (15), 154104 (2010). 
 A consistent and accurate ab initio parametrization of density
 functional dispersion correction (DFT-D) for the 94 elements H-Pu.
 https://doi.org/10.1063/1.3382344

 Genovese, L; Deutsch, T; Goedecker, S. 
 JOURNAL OF CHEMICAL PHYSICS, 127 (5), 054704 (2007). 
 Efficient and accurate three-dimensional Poisson solver for surface
 problems.
 https://doi.org/10.1063/1.2754685

 Genovese, L; Deutsch, T; Neelov, A; Goedecker, S; Beylkin, G. 
 JOURNAL OF CHEMICAL PHYSICS, 125 (7), 074105 (2006). 
 Efficient solution of Poisson's equation with free boundary conditions.
 https://doi.org/10.1063/1.2335442

 Krack, M. 
 THEORETICAL CHEMISTRY ACCOUNTS, 114 (1-3), 145-152 (2005). 
 Pseudopotentials for H to Kr optimized for gradient-corrected
 exchange-correlation functionals.
 https://doi.org/10.1007/s00214-005-0655-y

 VandeVondele, J; Krack, M; Mohamed, F; Parrinello, M; Chassaing, T;
 Hutter, J. COMPUTER PHYSICS COMMUNICATIONS, 167 (2), 103-128 (2005). 
 QUICKSTEP: Fast and accurate density functional calculations using a
 mixed Gaussian and plane waves approach.
 https://doi.org/10.1016/j.cpc.2004.12.014

 Frigo, M; Johnson, SG. 
 PROCEEDINGS OF THE IEEE, 93 (2), 216-231 (2005). 
 The design and implementation of FFTW3.
 https://doi.org/10.1109/JPROC.2004.840301

 Iannuzzi, M; Chassaing, T; Wallman, T; Hutter, J. 
 CHIMIA, 59 (7-8), 499-503 (2005). 
 Ground and excited state density functional calculations with the
 Gaussian and augmented-plane-wave method.
 https://doi.org/10.2533/000942905777676164

 VandeVondele, J; Hutter, J. 
 JOURNAL OF CHEMICAL PHYSICS, 118 (10), 4365-4369 (2003). 
 An efficient orbital transformation method for electronic structure
 calculations.
 https://doi.org/10.1063/1.1543154

 Martin,Richard L.. 
 The Journal of Chemical Physics, 118 (11), 4775-4777 (2003). 
 Natural transition orbitals.
 https://doi.org/10.1063/1.1558471

 Fattebert, JL; Gygi, F. J. Comput. Chem., 23 (6), (2002). 
 Density functional theory for efficient ab initio molecular dynamics
 simulations in solution.
 https://doi.org/10.1002/jcc.10069

 Hartwigsen, C; Goedecker, S; Hutter, J. 
 PHYSICAL REVIEW B, 58 (7), 3641-3662 (1998). 
 Relativistic separable dual-space Gaussian pseudopotentials from H to Rn.
 https://doi.org/10.1103/PhysRevB.58.3641

 Lippert, G; Hutter, J; Parrinello, M. 
 MOLECULAR PHYSICS, 92 (3), 477-487 (1997). 
 A hybrid Gaussian and plane wave density functional scheme.
 https://doi.org/10.1080/002689797170220

 Perdew, JP; Burke, K; Ernzerhof, M. 
 PHYSICAL REVIEW LETTERS, 77 (18), 3865-3868 (1996). 
 Generalized gradient approximation made simple.
 https://doi.org/10.1103/PhysRevLett.77.3865

 Goedecker, S; Teter, M; Hutter, J. 
 PHYSICAL REVIEW B, 54 (3), 1703-1710 (1996). 
 Separable dual-space Gaussian pseudopotentials.
 https://doi.org/10.1103/PhysRevB.54.1703


 -------------------------------------------------------------------------------
 -                                                                             -
 -                                T I M I N G                                  -
 -                                                                             -
 -------------------------------------------------------------------------------
 SUBROUTINE                       CALLS  ASD         SELF TIME        TOTAL TIME
                                MAXIMUM       AVERAGE  MAXIMUM  AVERAGE  MAXIMUM
 CP2K                                 1  1.0    0.169    0.259 1764.704 1764.707
 qs_energies                          1  2.0    0.001    0.006 1763.612 1763.618
 scf_env_do_scf                       1  3.0    0.000    0.001 1132.662 1132.664
 scf_env_do_scf_inner_loop           50  4.0    0.001    0.013 1128.736 1128.738
 pw_poisson_solve                  1138  9.2   45.707   88.563 1116.315 1118.669
 qs_ks_update_qs_env                 51  5.0    0.001    0.001 1098.819 1098.855
 rebuild_ks_matrix                   50  6.0    0.000    0.000 1098.811 1098.847
 qs_ks_build_kohn_sham_matrix        50  7.0    0.009    0.014 1098.810 1098.847
 sccs                                50  8.0   12.425   13.897 1021.334 1021.698
 pw_transfer                      11596 10.6    1.778    1.951  824.688  833.376
 fft_wrap_pw1pw2                   9840 11.8    0.219    0.239  816.943  825.961
 fft_wrap_pw1pw2_300               7220 12.6  178.043  194.365  795.117  802.896
 qs_energies_properties               1  3.0    0.000    0.000  618.760  618.764
 tddfpt                               1  4.0    0.000    0.004  618.760  618.764
 tddfpt_energies                      1  5.0    0.000    0.003  618.650  618.651
 tddfpt_davidson_solver               2  6.0    0.003    0.027  614.075  614.075
 tddfpt_compute_Aop_evects            7  7.0    0.000    0.000  610.491  610.492
 fhxc_kernel                          7  8.0    0.015    0.030  609.422  609.428
 fft3d_ps                          9840 13.8  276.643  295.130  528.429  540.238
 ps_wavelet_solve                  1138 10.2  315.882  368.834  504.611  519.136
 mp_alltoall_d54                   1138 11.2  123.224  259.938  123.224  259.938
 tddfpt_apply_xc_analytic           210  9.0    1.290    1.750  211.078  213.047
 xc_pw_derive                      1563 11.0    0.034    0.037  202.374  205.837
 mp_alltoall_z22v                  9840 15.8  169.914  197.857  169.914  197.857
 tddfpt_apply_coulomb               210  9.0    0.004    0.005  189.807  190.316
 x_to_yz                           5206 14.4   55.964   62.425  163.425  180.844
 qs_rho_update_rho_low              262  8.2    0.002    0.002  148.640  148.699
 calculate_rho_elec                 262  9.2    0.637    0.710  148.638  148.697
 xc_pw_divergence                   260 10.8    0.019    0.021  134.555  137.679
 xc_calc_2nd_deriv_analytical       210 10.0   10.670   12.835  123.453  123.820
 density_rs2pw                      262 10.2    0.023    0.025  110.999  114.240
 mp_alltoall_d45                   1139 11.2   61.747  109.940   61.747  109.940
 integrate_v_rspace                 260  9.0    0.011    0.012   98.148  100.014
 rs_pw_transfer                    3327 11.1    0.057    0.062   90.765   93.359
 yz_to_x                           3062 15.2   20.523   22.557   82.287   90.580
 potential_pw2rs                    260 10.0    0.115    0.141   86.498   88.115
 mp_alltoall_d11v                 15659 11.4   42.474   81.215   42.474   81.215
 pw_scatter_p                      5986 13.5   65.875   69.983   65.875   69.983
 pw_derive                         4332 10.7   60.143   62.759   60.143   62.759
 qs_vxc_create                       50  8.0    0.002    0.002   50.103   50.582
 xc_vxc_pw_create                    50  9.0    0.267    0.413   50.101   50.580
 grid_collocate_task_list           262 10.2   34.869   45.034   34.869   45.034
 pw_gather_p                       3854 14.2   42.703   44.945   42.703   44.945
 mp_waitany                       44316 13.1   39.212   42.629   39.212   42.629
 cp2k_distribution_to_z_slices     1138 10.2   22.042   23.808   36.516   39.634
 -------------------------------------------------------------------------------

 The number of warnings for this run is : 1
 
 -------------------------------------------------------------------------------
  **** **** ******  **  PROGRAM ENDED AT                 2024-02-29 17:34:00.606
 ***** ** ***  *** **   PROGRAM RAN ON                              28737885bbaf
 **    ****   ******    PROGRAM RAN BY                                 <unknown>
 ***** **    ** ** **   PROGRAM PROCESS ID                                   538
  **** **  *******  **  PROGRAM STOPPED IN                                  /mnt
