      47
 i =       23, E =      -316.8564379236
  O        15.5846686215        9.7416769844       12.5236391839
  N        13.5418563570       14.8207089673       15.7484261438
  C        11.8995045190        9.0489446878        8.8764534538
  H        11.5021029746        9.9305956658        9.3810460330
  C        11.2224102144        8.5356209390        7.7747722126
  H        10.2973925724        8.9974413098        7.4300971909
  C        11.7275738834        7.4097097810        7.1100824243
  C        12.9122980452        6.8026941660        7.5421500268
  H        13.2965734984        5.9257466813        7.0208735149
  C        13.5835455251        7.3207678139        8.6434200180
  H        14.5119189194        6.8571510998        8.9802863379
  C        13.0917776795        8.4482444145        9.3344230869
  C        13.8556375115        8.9347174111       10.4725790230
  H        14.7701651640        8.3800400907       10.7129637330
  C        13.5839938337        9.9975562373       11.2617914115
  H        12.7052924382       10.6227500719       11.0974074678
  C        14.5254982486       10.3649800079       12.3454850783
  C        14.1967772599       11.5359064930       13.2042132942
  C        15.2552819871       12.1316310961       13.9191352845
  H        16.2524556634       11.7061274003       13.8065361213
  C        15.0315389090       13.2343039262       14.7267998225
  H        15.8465440955       13.7272424230       15.2579429100
  C        13.7219632828       13.7258368177       14.8998591510
  C        12.6562226118       13.1351418901       14.1921323861
  H        11.6509228707       13.5484037174       14.2912098332
  C        12.8994402667       12.0619143711       13.3389921055
  H        12.0612999272       11.6191833122       12.7984206120
  C        12.5694118315       14.8142404537       16.5935044000
  H        11.9091351539       13.9351299283       16.7168991952
  C        12.3179356950       15.9549954148       17.4690791440
  C        13.1049967899       17.1180916668       17.3693326562
  H        13.8951992679       17.1481287675       16.6191940437
  C        12.8707756894       18.1920369602       18.2165781058
  H        13.4741944996       19.0968239610       18.1430516595
  C        11.8433103032       18.1111277503       19.1693383176
  C        11.0547425377       16.9608073472       19.2810886336
  H        10.2607958997       16.9117927164       20.0262749281
  C        11.2936419132       15.8854727323       18.4275774218
  H        10.6867376293       14.9805587066       18.5021070907
  C        11.0509168460        6.8669624355        5.8861178050
  C        11.6325601080       19.2523383922       20.1195908902
  F         9.7570366869        7.3066931739        5.7554108233
  F        11.7126229249        7.2440354227        4.7385871056
  F        11.0323202149        5.4906180079        5.8883334775
  F        10.3274389156       19.3654381599       20.5192444683
  F        11.9866194981       20.4535112697       19.5685786280
  F        12.3889328637       19.0961005333       21.2610721532
