WARNING: Linux kernel CMA support was requested via the
btl_vader_single_copy_mechanism MCA variable, but CMA support is
not available due to restrictive ptrace settings.

The vader shared memory BTL will fall back on another single-copy
mechanism if one is available. This may result in lower performance.

  Local host: instance-2
--------------------------------------------------------------------------

     Program PWSCF v.7.2 starts on 27Dec2023 at 18:41:30 

     This program is part of the open-source Quantum ESPRESSO suite
     for quantum simulation of materials; please cite
         "P. Giannozzi et al., J. Phys.:Condens. Matter 21 395502 (2009);
         "P. Giannozzi et al., J. Phys.:Condens. Matter 29 465901 (2017);
         "P. Giannozzi et al., J. Chem. Phys. 152 154105 (2020);
          URL http://www.quantum-espresso.org", 
     in publications or presentations arising from this work. More details at
     http://www.quantum-espresso.org/quote

     Parallel version (MPI & OpenMP), running on      60 processor cores
     Number of MPI processes:                30
     Threads/MPI process:                     2

     MPI processes distributed on     1 nodes
     197587 MiB available memory on the printing compute node when the environment starts

     Reading input from 4amp33_relax.in

     Current dimensions of program PWSCF are:
     Max number of different atomic species (ntypx) = 10
     Max number of k-points (npk) =  40000
     Max angular momentum in pseudopotentials (lmaxx) =  4
     file F.pbe-n-rrkjus_psl.1.0.0.UPF: wavefunction(s)  2S renormalized

     IMPORTANT: XC functional enforced from input :
     Exchange-correlation= PBE
                           (   1   4   3   4   0   0   0)
     Any further DFT definition will be discarded
     Please, verify this is what you really want


     gamma-point specific algorithms are used

     R & G space division:  proc/nbgrp/npool/nimage =      30
     Subspace diagonalization in iterative solution of the eigenvalue problem:
     one sub-group per band group will be used
     ELPA distributed-memory algorithm (size of sub-group:  2*  2 procs)


     Parallelization info
     --------------------
     sticks:   dense  smooth     PW     G-vecs:    dense   smooth      PW
     Min         269     106     26                40856    10318    1280
     Max         272     108     28                40880    10348    1304
     Sum        8101    3235    803              1226133   310067   38721

     Using Slab Decomposition



     bravais-lattice index     =           14
     lattice parameter (alat)  =      10.6624  a.u.
     unit-cell volume          =    6494.7431 (a.u.)^3
     number of atoms/cell      =           94
     number of atomic types    =            5
     number of electrons       =       328.00
     number of Kohn-Sham states=          164
     kinetic-energy cutoff     =      50.0000  Ry
     charge density cutoff     =     500.0000  Ry
     scf convergence threshold =      1.0E-10
     mixing beta               =       0.7000
     number of iterations used =            8  local-TF  mixing
     energy convergence thresh.=      1.0E-04
     force convergence thresh. =      1.0E-03
     Exchange-correlation= PBE
                           (   1   4   3   4   0   0   0)
     nstep                     =           50


     celldm(1)=  10.662402  celldm(2)=   1.803608  celldm(3)=   3.100136
     celldm(4)=   0.245255  celldm(5)=   0.127686  celldm(6)=   0.110721

     crystal axes: (cart. coord. in units of alat)
               a(1) = (   1.000000   0.000000   0.000000 )  
               a(2) = (   0.199697   1.792519   0.000000 )  
               a(3) = (   0.395844   0.720928   2.989049 )  

     reciprocal axes: (cart. coord. in units 2 pi/alat)
               b(1) = (  1.000000 -0.111406 -0.105561 )  
               b(2) = (  0.000000  0.557874 -0.134554 )  
               b(3) = (  0.000000  0.000000  0.334555 )  


     PseudoPot. # 1 for O  read from file:
     /home/yongkeat1017/miniconda3/pp/O.pbe-n-rrkjus_psl.1.0.0.UPF
     MD5 check sum: 91400c9766925bcf19f520983a725ff0
     Pseudo is Ultrasoft + core correction, Zval =  6.0
     Generated using &quot;atomic&quot; code by A. Dal Corso  v.6.3MaX
     Using radial grid of 1095 points,  4 beta functions with: 
                l(1) =   0
                l(2) =   0
                l(3) =   1
                l(4) =   1
     Q(r) pseudized with 0 coefficients 


     PseudoPot. # 2 for N  read from file:
     /home/yongkeat1017/miniconda3/pp/N.pbe-n-rrkjus_psl.1.0.0.UPF
     MD5 check sum: ada94e3ed05223de5319d0572dc76806
     Pseudo is Ultrasoft + core correction, Zval =  5.0
     Generated using &quot;atomic&quot; code by A. Dal Corso  v.6.3MaX
     Using radial grid of 1085 points,  4 beta functions with: 
                l(1) =   0
                l(2) =   0
                l(3) =   1
                l(4) =   1
     Q(r) pseudized with 0 coefficients 


     PseudoPot. # 3 for C  read from file:
     /home/yongkeat1017/miniconda3/pp/C.pbe-n-rrkjus_psl.1.0.0.UPF
     MD5 check sum: 1fdd950c42eb37d8afe3dd2f8d12311e
     Pseudo is Ultrasoft + core correction, Zval =  4.0
     Generated using &quot;atomic&quot; code by A. Dal Corso  v.6.3MaX
     Using radial grid of 1073 points,  4 beta functions with: 
                l(1) =   0
                l(2) =   0
                l(3) =   1
                l(4) =   1
     Q(r) pseudized with 0 coefficients 


     PseudoPot. # 4 for H  read from file:
     /home/yongkeat1017/miniconda3/pp/H.pbe-rrkjus_psl.1.0.0.UPF
     MD5 check sum: 3f4114867bd07edc7f1424d066fc1888
     Pseudo is Ultrasoft, Zval =  1.0
     Generated using &quot;atomic&quot; code by A. Dal Corso  v.6.3MaX
     Using radial grid of  929 points,  2 beta functions with: 
                l(1) =   0
                l(2) =   0
     Q(r) pseudized with 0 coefficients 


     PseudoPot. # 5 for F  read from file:
     /home/yongkeat1017/miniconda3/pp/F.pbe-n-rrkjus_psl.1.0.0.UPF
     MD5 check sum: 54b1cd0d2e22d705595f13732da1ccc9
     Pseudo is Ultrasoft + core correction, Zval =  7.0
     Generated using &quot;atomic&quot; code by A. Dal Corso  v.6.3MaX
     Using radial grid of 1105 points,  4 beta functions with: 
                l(1) =   0
                l(2) =   0
                l(3) =   1
                l(4) =   1
     Q(r) pseudized with 0 coefficients 


     atomic species   valence    mass     pseudopotential
        O              6.00    16.00000     O ( 1.00)
        N              5.00    14.00000     N ( 1.00)
        C              4.00    12.00000     C ( 1.00)
        H              1.00     1.00000     H ( 1.00)
        F              7.00    18.99840     F ( 1.00)

      2 Sym. Ops., with inversion, found



   Cartesian axes

     site n.     atom                  positions (alat units)
         1           O   tau(   1) = (   1.1568298   1.0518108   0.9649549  )
         2           O   tau(   2) = (   0.4387108   1.4616360   2.0240948  )
         3           N   tau(   3) = (   0.7679696   1.8537832   1.6070028  )
         4           N   tau(   4) = (   0.8275708   0.6596634   1.3820469  )
         5           C   tau(   5) = (   0.4810251   0.8465831   0.4111139  )
         6           C   tau(   6) = (   1.1145155   1.6668637   2.5779358  )
         7           H   tau(   7) = (   0.4254928   0.9846756   0.4814372  )
         8           H   tau(   8) = (   1.1700477   1.5287711   2.5076123  )
         9           C   tau(   9) = (   0.3560217   0.7463993   0.2335643  )
        10           C   tau(  10) = (   1.2395188   1.7670473   2.7554854  )
        11           H   tau(  11) = (   0.2166397   0.8176864   0.1819285  )
        12           H   tau(  12) = (   1.3789008   1.6957602   2.8071210  )
        13           C   tau(  13) = (   0.4299575   0.5452335   0.1307410  )
        14           C   tau(  14) = (   1.1655830   1.9682133   2.8583085  )
        15           C   tau(  15) = (   0.6303079   0.4413996   0.2123719  )
        16           C   tau(  16) = (   0.9652328   2.0720472   2.7766776  )
        17           H   tau(  17) = (   0.6807502   0.2985681   0.1468819  )
        18           H   tau(  18) = (   0.9147902   2.2148785   2.8421677  )
        19           C   tau(  19) = (   0.7569684   0.5425755   0.3866037  )
        20           C   tau(  20) = (   0.8385720   1.9708711   2.6024460  )
        21           H   tau(  21) = (   0.8955188   0.4699243   0.4387447  )
        22           H   tau(  22) = (   0.7000218   2.0435225   2.5503050  )
        23           C   tau(  23) = (   0.6861939   0.7484108   0.4879026  )
        24           C   tau(  24) = (   0.9093465   1.7650361   2.5011470  )
        25           C   tau(  25) = (   0.8308805   0.8590114   0.6618951  )
        26           C   tau(  26) = (   0.7646602   1.6544352   2.3271545  )
        27           H   tau(  27) = (   0.9795541   0.7910462   0.6831952  )
        28           H   tau(  28) = (   0.6159864   1.7224004   2.3058545  )
        29           C   tau(  29) = (   0.7861672   1.0395411   0.7942802  )
        30           C   tau(  30) = (   0.8093733   1.4739055   2.1947695  )
        31           H   tau(  31) = (   0.6391270   1.1131514   0.7836242  )
        32           H   tau(  32) = (   0.9564135   1.4002954   2.2054254  )
        33           C   tau(  33) = (   0.9607944   1.1296783   0.9599034  )
        34           C   tau(  34) = (   0.6347461   1.3837683   2.0291463  )
        35           C   tau(  35) = (   0.8928137   1.3212206   1.1245701  )
        36           C   tau(  36) = (   0.7027267   1.1922262   1.8644796  )
        37           C   tau(  37) = (   1.0481913   1.3731907   1.3006551  )
        38           C   tau(  38) = (   0.5473491   1.1402559   1.6883946  )
        39           H   tau(  39) = (   1.1888060   1.2880212   1.3127996  )
        40           H   tau(  40) = (   0.4067347   1.2254256   1.6762501  )
        41           C   tau(  41) = (   1.0009519   1.5473259   1.4584769  )
        42           C   tau(  42) = (   0.5945887   0.9661209   1.5305728  )
        43           H   tau(  43) = (   1.1093026   1.5807371   1.5778147  )
        44           H   tau(  44) = (   0.4862381   0.9327095   1.4112350  )
        45           C   tau(  45) = (   0.7975280   1.6729089   1.4441293  )
        46           C   tau(  46) = (   0.7980125   0.8405379   1.5449202  )
        47           C   tau(  47) = (   0.6439496   1.6219533   1.2707646  )
        48           C   tau(  48) = (   0.9515908   0.8914935   1.7182851  )
        49           H   tau(  49) = (   0.5046859   1.7089798   1.2567249  )
        50           H   tau(  50) = (   1.0908546   0.8044668   1.7323246  )
        51           C   tau(  51) = (   0.6891512   1.4436430   1.1141384  )
        52           C   tau(  52) = (   0.9063892   1.0698036   1.8749113  )
        53           H   tau(  53) = (   0.5775613   1.4062833   0.9984443  )
        54           H   tau(  54) = (   1.0179792   1.1071634   1.9906054  )
        55           C   tau(  55) = (   0.5748439   1.8855173   1.7020844  )
        56           C   tau(  56) = (   1.0206967   0.6279294   1.2869652  )
        57           H   tau(  57) = (   0.4492452   1.7871886   1.6599447  )
        58           H   tau(  58) = (   1.1462953   0.7262581   1.3291048  )
        59           C   tau(  59) = (   0.5350051   2.0638802   1.8715635  )
        60           C   tau(  60) = (   1.0605356   0.4495667   1.1174861  )
        61           C   tau(  61) = (   0.6947015   2.2360348   1.9134101  )
        62           C   tau(  62) = (   0.9008390   0.2774120   1.0756394  )
        63           H   tau(  63) = (   0.6323106   0.4482628   1.8222741  )
        64           H   tau(  64) = (   0.9632301   2.0651839   1.1667754  )
        65           C   tau(  65) = (   0.4631877   0.6085589   2.0819926  )
        66           C   tau(  66) = (   1.1323529   1.9048877   0.9070571  )
        67           H   tau(  67) = (   0.5768382   0.7253395   2.1050830  )
        68           H   tau(  68) = (   1.0187023   1.7881072   0.8839666  )
        69           C   tau(  69) = (   1.2654184   0.6047045   2.2182932  )
        70           C   tau(  70) = (   0.3301223   1.9087422   0.7707563  )
        71           C   tau(  71) = (   1.3026649   2.2293168   2.1761477  )
        72           C   tau(  72) = (   0.2928756   0.2841299   0.8129020  )
        73           H   tau(  73) = (   1.1637713   2.2254021   2.2648418  )
        74           H   tau(  74) = (   0.4317691   0.2880446   0.7242079  )
        75           C   tau(  75) = (   1.3391207   2.0657597   2.0063697  )
        76           C   tau(  76) = (   0.2564199   0.4476869   0.9826799  )
        77           H   tau(  77) = (   1.2243700   1.9498568   1.9811960  )
        78           H   tau(  78) = (   0.3711704   0.5635898   1.0078537  )
        79           C   tau(  79) = (   0.7044889   1.1587436   2.9290892  )
        80           C   tau(  80) = (   0.8910515   1.3547032   0.0599603  )
        81           C   tau(  81) = (   1.2328338   0.7740200   2.3997584  )
        82           C   tau(  82) = (   0.3627069   1.7394267   0.5892911  )
        83           F   tau(  83) = (   0.5103192   1.2426778   2.8795009  )
        84           F   tau(  84) = (   1.0852213   1.2707690   0.1095486  )
        85           F   tau(  85) = (   0.7998276   1.1718212   2.7345917  )
        86           F   tau(  86) = (   0.7957129   1.3416256   0.2544578  )
        87           F   tau(  87) = (   0.6656053   0.9495098   2.9425998  )
        88           F   tau(  88) = (   0.9299353   1.5639370   0.0464499  )
        89           F   tau(  89) = (   1.0180834   0.8122333   2.4574172  )
        90           F   tau(  90) = (   0.5774571   1.7012133   0.5316323  )
        91           F   tau(  91) = (   1.3052254   0.9831533   2.3560585  )
        92           F   tau(  92) = (   0.2903151   1.5302935   0.6329910  )
        93           F   tau(  93) = (   1.3305260   0.7194639   2.5945847  )
        94           F   tau(  94) = (   0.2650146   1.7939828   0.3944648  )

     number of k points=     1
                       cart. coord. in units 2pi/alat
        k(    1) = (   0.0000000   0.0000000   0.0000000), wk =   2.0000000

     Dense  grid:   613067 G-vectors     FFT dimensions: (  75, 144, 240)

     Smooth grid:   155034 G-vectors     FFT dimensions: (  48,  90, 150)

     Estimated max dynamical RAM per process >      84.50 MB

     Estimated total dynamical RAM >       2.48 GB

     Check: negative core charge=   -0.000002

     Initial potential from superposition of free atoms

     starting charge     327.9977, renormalised to     328.0000
[instance-2:02680] 29 more processes have sent help message help-btl-vader.txt / cma-permission-denied
[instance-2:02680] Set MCA parameter "orte_base_help_aggregate" to 0 to see all help / error messages
     Starting wfcs are  286 randomized atomic wfcs

     total cpu time spent up to now is        6.1 secs

     per-process dynamical memory:    53.6 Mb

     Self-consistent Calculation

     iteration #  1     ecut=    50.00 Ry     beta= 0.70
     Davidson diagonalization with overlap
     ethr =  1.00E-02,  avg # of iterations =  2.0

     total cpu time spent up to now is        8.3 secs

     total energy              =   -1320.01683764 Ry
     estimated scf accuracy    <      12.84917226 Ry

     iteration #  2     ecut=    50.00 Ry     beta= 0.70
     Davidson diagonalization with overlap
     ethr =  3.92E-03,  avg # of iterations =  2.0

     total cpu time spent up to now is       10.4 secs

     total energy              =   -1319.06796314 Ry
     estimated scf accuracy    <       3.25503225 Ry

     iteration #  3     ecut=    50.00 Ry     beta= 0.70
     Davidson diagonalization with overlap
     ethr =  9.92E-04,  avg # of iterations =  4.0

     total cpu time spent up to now is       13.0 secs

     total energy              =   -1319.57343545 Ry
     estimated scf accuracy    <       0.59049322 Ry

     iteration #  4     ecut=    50.00 Ry     beta= 0.70
     Davidson diagonalization with overlap
     ethr =  1.80E-04,  avg # of iterations =  4.0

     total cpu time spent up to now is       15.3 secs

     total energy              =   -1319.48937915 Ry
     estimated scf accuracy    <       0.25048032 Ry

     iteration #  5     ecut=    50.00 Ry     beta= 0.70
     Davidson diagonalization with overlap
     ethr =  7.64E-05,  avg # of iterations =  8.0

     total cpu time spent up to now is       19.1 secs

     total energy              =   -1319.58214791 Ry
     estimated scf accuracy    <       0.33954578 Ry

     iteration #  6     ecut=    50.00 Ry     beta= 0.70
     Davidson diagonalization with overlap
     ethr =  7.64E-05,  avg # of iterations =  2.0

     total cpu time spent up to now is       21.2 secs

     total energy              =   -1319.50572413 Ry
     estimated scf accuracy    <       0.20295214 Ry

     iteration #  7     ecut=    50.00 Ry     beta= 0.70
     Davidson diagonalization with overlap
     ethr =  6.19E-05,  avg # of iterations =  6.0

     total cpu time spent up to now is       24.6 secs

     total energy              =   -1319.57979849 Ry
     estimated scf accuracy    <       0.09922111 Ry

     iteration #  8     ecut=    50.00 Ry     beta= 0.70
     Davidson diagonalization with overlap
     ethr =  3.03E-05,  avg # of iterations =  1.0

     total cpu time spent up to now is       26.9 secs

     total energy              =   -1319.54724668 Ry
     estimated scf accuracy    <       0.07882279 Ry

     iteration #  9     ecut=    50.00 Ry     beta= 0.70
     Davidson diagonalization with overlap
     ethr =  2.40E-05,  avg # of iterations =  6.0

     total cpu time spent up to now is       30.1 secs

     total energy              =   -1319.57435104 Ry
     estimated scf accuracy    <       0.01454302 Ry

     iteration # 10     ecut=    50.00 Ry     beta= 0.70
     Davidson diagonalization with overlap
     ethr =  4.43E-06,  avg # of iterations =  5.0

     total cpu time spent up to now is       33.2 secs

     total energy              =   -1319.56391408 Ry
     estimated scf accuracy    <       0.07230709 Ry

     iteration # 11     ecut=    50.00 Ry     beta= 0.70
     Davidson diagonalization with overlap
     ethr =  4.43E-06,  avg # of iterations =  6.0

     total cpu time spent up to now is       36.5 secs

     total energy              =   -1319.56250334 Ry
     estimated scf accuracy    <       0.01632664 Ry

     iteration # 12     ecut=    50.00 Ry     beta= 0.70
     Davidson diagonalization with overlap
     ethr =  4.43E-06,  avg # of iterations =  6.0

     total cpu time spent up to now is       39.5 secs

     total energy              =   -1319.56344485 Ry
     estimated scf accuracy    <       0.00170791 Ry

     iteration # 13     ecut=    50.00 Ry     beta= 0.70
     Davidson diagonalization with overlap
     ethr =  5.21E-07,  avg # of iterations =  6.0

     total cpu time spent up to now is       42.6 secs

     total energy              =   -1319.56356453 Ry
     estimated scf accuracy    <       0.00102715 Ry

     iteration # 14     ecut=    50.00 Ry     beta= 0.70
     Davidson diagonalization with overlap
     ethr =  3.13E-07,  avg # of iterations =  4.0

     total cpu time spent up to now is       45.2 secs

     total energy              =   -1319.56345119 Ry
     estimated scf accuracy    <       0.00037320 Ry

     iteration # 15     ecut=    50.00 Ry     beta= 0.70
     Davidson diagonalization with overlap
     ethr =  1.14E-07,  avg # of iterations =  6.0

     total cpu time spent up to now is       48.5 secs

     total energy              =   -1319.56357319 Ry
     estimated scf accuracy    <       0.00029007 Ry

     iteration # 16     ecut=    50.00 Ry     beta= 0.70
     Davidson diagonalization with overlap
     ethr =  8.84E-08,  avg # of iterations =  6.0

     total cpu time spent up to now is       51.1 secs

     total energy              =   -1319.56356641 Ry
     estimated scf accuracy    <       0.00006323 Ry

     iteration # 17     ecut=    50.00 Ry     beta= 0.70
     Davidson diagonalization with overlap
     ethr =  1.93E-08,  avg # of iterations =  6.0

     total cpu time spent up to now is       54.5 secs

     total energy              =   -1319.56358290 Ry
     estimated scf accuracy    <       0.00004000 Ry

     iteration # 18     ecut=    50.00 Ry     beta= 0.70
     Davidson diagonalization with overlap
     ethr =  1.22E-08,  avg # of iterations =  2.0

     total cpu time spent up to now is       56.7 secs

     total energy              =   -1319.56357496 Ry
     estimated scf accuracy    <       0.00001686 Ry

     iteration # 19     ecut=    50.00 Ry     beta= 0.70
     Davidson diagonalization with overlap
     ethr =  5.14E-09,  avg # of iterations =  8.0

     total cpu time spent up to now is       60.4 secs

     total energy              =   -1319.56358316 Ry
     estimated scf accuracy    <       0.00002614 Ry

     iteration # 20     ecut=    50.00 Ry     beta= 0.70
     Davidson diagonalization with overlap
     ethr =  5.14E-09,  avg # of iterations =  5.0

     total cpu time spent up to now is       63.0 secs

     total energy              =   -1319.56357935 Ry
     estimated scf accuracy    <       0.00001074 Ry

     iteration # 21     ecut=    50.00 Ry     beta= 0.70
     Davidson diagonalization with overlap
     ethr =  3.27E-09,  avg # of iterations =  6.0

     total cpu time spent up to now is       66.3 secs

     total energy              =   -1319.56358410 Ry
     estimated scf accuracy    <       0.00000451 Ry

     iteration # 22     ecut=    50.00 Ry     beta= 0.70
     Davidson diagonalization with overlap
     ethr =  1.37E-09,  avg # of iterations =  2.0

     total cpu time spent up to now is       68.3 secs

     total energy              =   -1319.56358352 Ry
     estimated scf accuracy    <       0.00000194 Ry

     iteration # 23     ecut=    50.00 Ry     beta= 0.70
     Davidson diagonalization with overlap
     ethr =  5.92E-10,  avg # of iterations =  6.0

     total cpu time spent up to now is       71.6 secs

     total energy              =   -1319.56358408 Ry
     estimated scf accuracy    <       0.00000022 Ry

     iteration # 24     ecut=    50.00 Ry     beta= 0.70
     Davidson diagonalization with overlap
     ethr =  6.85E-11,  avg # of iterations =  6.0

     total cpu time spent up to now is       74.6 secs

     total energy              =   -1319.56358410 Ry
     estimated scf accuracy    <       0.00000003 Ry

     iteration # 25     ecut=    50.00 Ry     beta= 0.70
     Davidson diagonalization with overlap
     ethr =  9.89E-12,  avg # of iterations =  5.0

     total cpu time spent up to now is       79.5 secs

     total energy              =   -1319.56358410 Ry
     estimated scf accuracy    <          5.7E-09 Ry

     iteration # 26     ecut=    50.00 Ry     beta= 0.70
     Davidson diagonalization with overlap
     ethr =  1.73E-12,  avg # of iterations =  4.0

     total cpu time spent up to now is       82.6 secs

     total energy              =   -1319.56358410 Ry
     estimated scf accuracy    <          1.6E-09 Ry

     iteration # 27     ecut=    50.00 Ry     beta= 0.70
     Davidson diagonalization with overlap
     ethr =  4.96E-13,  avg # of iterations =  5.0

     total cpu time spent up to now is       86.0 secs

     total energy              =   -1319.56358410 Ry
     estimated scf accuracy    <          1.4E-09 Ry

     iteration # 28     ecut=    50.00 Ry     beta= 0.70
     Davidson diagonalization with overlap
     ethr =  4.18E-13,  avg # of iterations =  6.0

     total cpu time spent up to now is       89.1 secs

     total energy              =   -1319.56358410 Ry
     estimated scf accuracy    <          3.0E-10 Ry

     iteration # 29     ecut=    50.00 Ry     beta= 0.70
     Davidson diagonalization with overlap
     ethr =  1.00E-13,  avg # of iterations =  6.0

     total cpu time spent up to now is       92.1 secs

     End of self-consistent calculation

          k = 0.0000 0.0000 0.0000 ( 19361 PWs)   bands (ev):

   -28.9211 -28.9201 -27.8400 -27.8400 -24.8700 -24.8662 -24.5194 -24.5192
   -24.4185 -24.4183 -24.3183 -24.3181 -19.8291 -19.8284 -17.7625 -17.7422
   -16.1293 -16.1048 -15.9194 -15.9082 -15.5065 -15.4018 -14.2587 -14.2509
   -13.9769 -13.9469 -13.1062 -13.0876 -12.9261 -12.9213 -12.7667 -12.7664
   -12.6851 -12.6718 -12.6364 -12.6260 -11.4411 -11.4170 -10.9333 -10.9217
   -10.2785 -10.2247  -9.8906  -9.8607  -9.7824  -9.7648  -9.6383  -9.6310
    -9.5072  -9.4683  -9.3152  -9.2956  -8.7844  -8.7790  -8.4828  -8.4385
    -8.4381  -8.4084  -8.4036  -8.3847  -8.3540  -8.2835  -8.2783  -8.2583
    -8.2411  -8.2158  -8.1395  -8.0947  -7.5943  -7.5928  -7.0666  -7.0481
    -6.7053  -6.6828  -6.3521  -6.3439  -5.6458  -5.6124  -5.4243  -5.3593
    -5.3584  -5.3213  -5.2686  -5.2425  -5.1940  -5.1479  -5.1196  -5.0779
    -4.9066  -4.9008  -4.8922  -4.8896  -4.7935  -4.7928  -4.7363  -4.7319
    -4.6357  -4.5410  -4.5161  -4.4756  -4.4074  -4.3692  -4.3208  -4.2176
    -4.1837  -4.0708  -4.0042  -3.9594  -3.9053  -3.7752  -3.7535  -3.7102
    -3.5995  -3.5515  -3.5472  -3.4000  -3.2956  -3.2785  -3.1052  -3.0345
    -2.9633  -2.9546  -2.8956  -2.8259  -2.7975  -2.7564  -2.6802  -2.6567
    -2.6286  -2.6279  -2.5007  -2.4795  -2.4621  -2.3870  -2.3682  -2.1898
    -2.1652  -2.1085  -2.0501  -2.0218  -2.0122  -2.0097  -1.9259  -1.8991
    -1.8904  -1.7574  -1.3200  -1.2792  -0.9597  -0.6140  -0.5970  -0.5199
    -0.2998  -0.2195  -0.2010  -0.0955   0.0185   0.1039   0.4312   0.4413
     0.7352   0.7628   0.8446   0.8504

     highest occupied level (ev):     0.8504

!    total energy              =   -1319.56358410 Ry
     estimated scf accuracy    <          6.2E-11 Ry

     The total energy is the sum of the following terms:
     one-electron contribution =   -1195.75766838 Ry
     hartree contribution      =     723.87518618 Ry
     xc contribution           =    -392.71555550 Ry
     ewald contribution        =    -454.96554641 Ry

     convergence has been achieved in  29 iterations

     Forces acting on atoms (cartesian axes, Ry/au):

     atom    1 type  1   force =     0.15542943   -0.06305226    0.01519195
     atom    2 type  1   force =    -0.15542943    0.06305226   -0.01519195
     atom    3 type  2   force =     0.15635163    0.00439764   -0.04591186
     atom    4 type  2   force =    -0.15635163   -0.00439764    0.04591186
     atom    5 type  3   force =     0.07444104   -0.20122106   -0.10050648
     atom    6 type  3   force =    -0.07444104    0.20122106    0.10050648
     atom    7 type  4   force =    -0.11601057    0.28594717    0.13964570
     atom    8 type  4   force =     0.11601057   -0.28594717   -0.13964570
     atom    9 type  3   force =     0.17599658   -0.07779410    0.08429247
     atom   10 type  3   force =    -0.17599658    0.07779410   -0.08429247
     atom   11 type  4   force =    -0.28003463    0.14986727   -0.10595093
     atom   12 type  4   force =     0.28003463   -0.14986727    0.10595093
     atom   13 type  3   force =     0.04785369   -0.00408602    0.04721130
     atom   14 type  3   force =    -0.04785369    0.00408602   -0.04721130
     atom   15 type  3   force =    -0.07359392    0.19352310    0.08100966
     atom   16 type  3   force =     0.07359392   -0.19352310   -0.08100966
     atom   17 type  4   force =     0.10486977   -0.28732739   -0.13238588
     atom   18 type  4   force =    -0.10486977    0.28732739    0.13238588
     atom   19 type  3   force =    -0.17990223    0.09733584   -0.07345558
     atom   20 type  3   force =     0.17990223   -0.09733584    0.07345558
     atom   21 type  4   force =     0.27989493   -0.14950236    0.10722816
     atom   22 type  4   force =    -0.27989493    0.14950236   -0.10722816
     atom   23 type  3   force =     0.00384797    0.03679034    0.02800191
     atom   24 type  3   force =    -0.00384797   -0.03679034   -0.02800191
     atom   25 type  3   force =    -0.20911757    0.03080286   -0.07875140
     atom   26 type  3   force =     0.20911757   -0.03080286    0.07875140
     atom   27 type  4   force =     0.30784343   -0.14631636    0.03911676
     atom   28 type  4   force =    -0.30784343    0.14631636   -0.03911676
     atom   29 type  3   force =     0.19965721   -0.03136050    0.06489738
     atom   30 type  3   force =    -0.19965721    0.03136050   -0.06489738
     atom   31 type  4   force =    -0.29478753    0.15432895   -0.01553834
     atom   32 type  4   force =     0.29478753   -0.15432895    0.01553834
     atom   33 type  3   force =    -0.10411209    0.05095928   -0.00492656
     atom   34 type  3   force =     0.10411209   -0.05095928    0.00492656
     atom   35 type  3   force =     0.02683456   -0.05539221   -0.03658739
     atom   36 type  3   force =    -0.02683456    0.05539221    0.03658739
     atom   37 type  3   force =    -0.19346860    0.14001457    0.00495691
     atom   38 type  3   force =     0.19346860   -0.14001457   -0.00495691
     atom   39 type  4   force =     0.28169699   -0.17461459    0.02661373
     atom   40 type  4   force =    -0.28169699    0.17461459   -0.02661373
     atom   41 type  3   force =    -0.13993621   -0.07745465   -0.18708606
     atom   42 type  3   force =     0.13993621    0.07745465    0.18708606
     atom   43 type  4   force =     0.22101273    0.07003139    0.24485398
     atom   44 type  4   force =    -0.22101273   -0.07003139   -0.24485398
     atom   45 type  3   force =     0.01925012    0.04502779    0.05597813
     atom   46 type  3   force =    -0.01925012   -0.04502779   -0.05597813
     atom   47 type  3   force =     0.16385434   -0.14074894   -0.01673336
     atom   48 type  3   force =    -0.16385434    0.14074894    0.01673336
     atom   49 type  4   force =    -0.28261963    0.17806476   -0.03542042
     atom   50 type  4   force =     0.28261963   -0.17806476    0.03542042
     atom   51 type  3   force =     0.13936913    0.07215986    0.16267474
     atom   52 type  3   force =    -0.13936913   -0.07215986   -0.16267474
     atom   53 type  4   force =    -0.22778275   -0.06754165   -0.23077786
     atom   54 type  4   force =     0.22778275    0.06754165    0.23077786
     atom   55 type  3   force =     0.11706810    0.16751367    0.08665186
     atom   56 type  3   force =    -0.11706810   -0.16751367   -0.08665186
     atom   57 type  4   force =    -0.27714011   -0.20332387   -0.07448670
     atom   58 type  4   force =     0.27714011    0.20332387    0.07448670
     atom   59 type  3   force =     0.00440542   -0.00298470    0.00035790
     atom   60 type  3   force =    -0.00440542    0.00298470   -0.00035790
     atom   61 type  3   force =    -0.15127144    0.01160493    0.11858671
     atom   62 type  3   force =     0.15127144   -0.01160493   -0.11858671
     atom   63 type  4   force =     0.27607840    0.01352554   -0.18668862
     atom   64 type  4   force =    -0.27607840   -0.01352554    0.18668862
     atom   65 type  3   force =    -0.16704998   -0.16249722   -0.02486904
     atom   66 type  3   force =     0.16704998    0.16249722    0.02486904
     atom   67 type  4   force =     0.23582892    0.23963196    0.04476287
     atom   68 type  4   force =    -0.23582892   -0.23963196   -0.04476287
     atom   69 type  3   force =     0.02560931   -0.01113095   -0.04725749
     atom   70 type  3   force =    -0.02560931    0.01113095    0.04725749
     atom   71 type  3   force =     0.17129434   -0.00550883   -0.11499759
     atom   72 type  3   force =    -0.17129434    0.00550883    0.11499759
     atom   73 type  4   force =    -0.27955795   -0.01508956    0.18070951
     atom   74 type  4   force =     0.27955795    0.01508956   -0.18070951
     atom   75 type  3   force =     0.12589965    0.13860397    0.03398686
     atom   76 type  3   force =    -0.12589965   -0.13860397   -0.03398686
     atom   77 type  4   force =    -0.23427949   -0.23336544   -0.04704255
     atom   78 type  4   force =     0.23427949    0.23336544    0.04704255
     atom   79 type  3   force =     0.06144981    0.11671261    0.09620331
     atom   80 type  3   force =    -0.06144981   -0.11671261   -0.09620331
     atom   81 type  3   force =    -0.02095783   -0.00105574   -0.01592469
     atom   82 type  3   force =     0.02095783    0.00105574    0.01592469
     atom   83 type  5   force =    -0.40288439    0.23331727    0.00314599
     atom   84 type  5   force =     0.40288439   -0.23331727   -0.00314599
     atom   85 type  5   force =     0.30985684    0.08128803   -0.36423409
     atom   86 type  5   force =    -0.30985684   -0.08128803    0.36423409
     atom   87 type  5   force =    -0.05134469   -0.49053120    0.14373424
     atom   88 type  5   force =     0.05134469    0.49053120   -0.14373424
     atom   89 type  5   force =    -0.25657807   -0.01034521    0.02622875
     atom   90 type  5   force =     0.25657807    0.01034521   -0.02622875
     atom   91 type  5   force =     0.11934206    0.20562971   -0.10004056
     atom   92 type  5   force =    -0.11934206   -0.20562971    0.10004056
     atom   93 type  5   force =     0.13642364   -0.10228304    0.19804328
     atom   94 type  5   force =    -0.13642364    0.10228304   -0.19804328
     The non-local contrib.  to forces
     atom    1 type  1   force =    -2.32327038    0.90311334   -0.06227294
     atom    2 type  1   force =     2.32327038   -0.90311334    0.06227294
     atom    3 type  2   force =    -1.21141703   -0.81322356   -0.30999056
     atom    4 type  2   force =     1.21141703    0.81322356    0.30999056
     atom    5 type  3   force =     0.06070069   -0.19277729   -0.08233101
     atom    6 type  3   force =    -0.06070069    0.19277729    0.08233101
     atom    7 type  4   force =     0.04195794   -0.10313978   -0.05272410
     atom    8 type  4   force =    -0.04195794    0.10313978    0.05272410
     atom    9 type  3   force =     0.14971402   -0.13092238    0.05546239
     atom   10 type  3   force =    -0.14971402    0.13092238   -0.05546239
     atom   11 type  4   force =     0.10396672   -0.05309838    0.03780110
     atom   12 type  4   force =    -0.10396672    0.05309838   -0.03780110
     atom   13 type  3   force =    -0.02081963   -0.05871023   -0.05816491
     atom   14 type  3   force =     0.02081963    0.05871023    0.05816491
     atom   15 type  3   force =    -0.09909720    0.17984983    0.05203847
     atom   16 type  3   force =     0.09909720   -0.17984983   -0.05203847
     atom   17 type  4   force =    -0.03793044    0.10625312    0.04798493
     atom   18 type  4   force =     0.03793044   -0.10625312   -0.04798493
     atom   19 type  3   force =    -0.15127662    0.08851585   -0.07221046
     atom   20 type  3   force =     0.15127662   -0.08851585    0.07221046
     atom   21 type  4   force =    -0.10255937    0.05387839   -0.03791066
     atom   22 type  4   force =     0.10255937   -0.05387839    0.03791066
     atom   23 type  3   force =     0.04910646    0.04707827    0.06077812
     atom   24 type  3   force =    -0.04910646   -0.04707827   -0.06077812
     atom   25 type  3   force =    -0.19833767   -0.03461529   -0.11670313
     atom   26 type  3   force =     0.19833767    0.03461529    0.11670313
     atom   27 type  4   force =    -0.11175094    0.04848582   -0.01766075
     atom   28 type  4   force =     0.11175094   -0.04848582    0.01766075
     atom   29 type  3   force =     0.17751257   -0.00137704    0.11331546
     atom   30 type  3   force =    -0.17751257    0.00137704   -0.11331546
     atom   31 type  4   force =     0.10988679   -0.05310398    0.00902471
     atom   32 type  4   force =    -0.10988679    0.05310398   -0.00902471
     atom   33 type  3   force =     0.10227812   -0.02946543    0.01333529
     atom   34 type  3   force =    -0.10227812    0.02946543   -0.01333529
     atom   35 type  3   force =     0.03092384   -0.05139045   -0.04497262
     atom   36 type  3   force =    -0.03092384    0.05139045    0.04497262
     atom   37 type  3   force =    -0.17191934    0.14206414   -0.02541479
     atom   38 type  3   force =     0.17191934   -0.14206414    0.02541479
     atom   39 type  4   force =    -0.10508236    0.06361129   -0.00764420
     atom   40 type  4   force =     0.10508236   -0.06361129    0.00764420
     atom   41 type  3   force =    -0.15005439   -0.06982232   -0.15049493
     atom   42 type  3   force =     0.15005439    0.06982232    0.15049493
     atom   43 type  4   force =    -0.08041859   -0.02470473   -0.08924485
     atom   44 type  4   force =     0.08041859    0.02470473    0.08924485
     atom   45 type  3   force =    -0.00114034    0.26513674    0.19400326
     atom   46 type  3   force =     0.00114034   -0.26513674   -0.19400326
     atom   47 type  3   force =     0.15354963   -0.11797798    0.02032667
     atom   48 type  3   force =    -0.15354963    0.11797798   -0.02032667
     atom   49 type  4   force =     0.10311407   -0.06379921    0.01071281
     atom   50 type  4   force =    -0.10311407    0.06379921   -0.01071281
     atom   51 type  3   force =     0.12688158    0.06683861    0.14578749
     atom   52 type  3   force =    -0.12688158   -0.06683861   -0.14578749
     atom   53 type  4   force =     0.08298798    0.02829523    0.08539313
     atom   54 type  4   force =    -0.08298798   -0.02829523   -0.08539313
     atom   55 type  3   force =     0.23985296    0.15310611    0.04652172
     atom   56 type  3   force =    -0.23985296   -0.15310611   -0.04652172
     atom   57 type  4   force =     0.09230096    0.07400738    0.03225517
     atom   58 type  4   force =    -0.09230096   -0.07400738   -0.03225517
     atom   59 type  3   force =    -0.00094980   -0.03135428   -0.03219667
     atom   60 type  3   force =     0.00094980    0.03135428    0.03219667
     atom   61 type  3   force =    -0.16445277   -0.00878304    0.13552289
     atom   62 type  3   force =     0.16445277    0.00878304   -0.13552289
     atom   63 type  4   force =    -0.10293669   -0.00251911    0.06864394
     atom   64 type  4   force =     0.10293669    0.00251911   -0.06864394
     atom   65 type  3   force =    -0.18271246   -0.14209082    0.03301484
     atom   66 type  3   force =     0.18271246    0.14209082   -0.03301484
     atom   67 type  4   force =    -0.08549590   -0.08765613   -0.01673421
     atom   68 type  4   force =     0.08549590    0.08765613    0.01673421
     atom   69 type  3   force =     0.00895516    0.08674401    0.07492381
     atom   70 type  3   force =    -0.00895516   -0.08674401   -0.07492381
     atom   71 type  3   force =     0.17949834    0.04962910   -0.10582918
     atom   72 type  3   force =    -0.17949834   -0.04962910    0.10582918
     atom   73 type  4   force =     0.10401941    0.00277696   -0.06580197
     atom   74 type  4   force =    -0.10401941   -0.00277696    0.06580197
     atom   75 type  3   force =     0.11924315    0.15379341    0.02602673
     atom   76 type  3   force =    -0.11924315   -0.15379341   -0.02602673
     atom   77 type  4   force =     0.08523918    0.08648179    0.01879416
     atom   78 type  4   force =    -0.08523918   -0.08648179   -0.01879416
     atom   79 type  3   force =    -0.29750917   -0.23019061   -0.47159454
     atom   80 type  3   force =     0.29750917    0.23019061    0.47159454
     atom   81 type  3   force =    -0.09654828    0.45752158    0.49847563
     atom   82 type  3   force =     0.09654828   -0.45752158   -0.49847563
     atom   83 type  5   force =     2.72670541   -0.96231860    1.01031186
     atom   84 type  5   force =    -2.72670541    0.96231860   -1.01031186
     atom   85 type  5   force =    -1.05364139   -0.02117899    2.86688563
     atom   86 type  5   force =     1.05364139    0.02117899   -2.86688563
     atom   87 type  5   force =     0.71529288    3.13526482    0.11167847
     atom   88 type  5   force =    -0.71529288   -3.13526482   -0.11167847
     atom   89 type  5   force =     2.82704479   -0.73690876   -0.94600387
     atom   90 type  5   force =    -2.82704479    0.73690876    0.94600387
     atom   91 type  5   force =    -0.85453674   -2.91116096    0.39119985
     atom   92 type  5   force =     0.85453674    2.91116096   -0.39119985
     atom   93 type  5   force =    -1.24800892    0.59666254   -2.75736697
     atom   94 type  5   force =     1.24800892   -0.59666254    2.75736697
     The ionic contribution  to forces
     atom    1 type  1   force =    11.98611025   -5.08563584    1.36162206
     atom    2 type  1   force =   -11.98611934    5.08564840   -1.36162602
     atom    3 type  2   force =     6.65674212    4.64512236    0.30396404
     atom    4 type  2   force =    -6.65673329   -4.64512822   -0.30396862
     atom    5 type  3   force =    -2.05365852    3.28570435    3.33282364
     atom    6 type  3   force =     2.05365623   -3.28570753   -3.33283536
     atom    7 type  4   force =    -1.30771591    2.48107527    1.71663998
     atom    8 type  4   force =     1.30771069   -2.48107067   -1.71663881
     atom    9 type  3   force =    -2.88899844    3.65723601    1.68132803
     atom   10 type  3   force =     2.88899621   -3.65723436   -1.68130962
     atom   11 type  4   force =    -2.56013142    1.73295185   -0.34238856
     atom   12 type  4   force =     2.56013377   -1.73295196    0.34238863
     atom   13 type  3   force =     1.08809904    1.90966288    2.66718157
     atom   14 type  3   force =    -1.08809109   -1.90966396   -2.66717995
     atom   15 type  3   force =     2.80948125   -2.41752376    1.15137548
     atom   16 type  3   force =    -2.80948023    2.41753292   -1.15138600
     atom   17 type  4   force =     1.34340120   -2.58971901   -0.70648828
     atom   18 type  4   force =    -1.34340440    2.58971834    0.70649205
     atom   19 type  3   force =     3.13925004   -1.28088265    3.00992801
     atom   20 type  3   force =    -3.13925577    1.28088052   -3.00991685
     atom   21 type  4   force =     2.43349988   -1.09517594    1.40852045
     atom   22 type  4   force =    -2.43350064    1.09517994   -1.40852156
     atom   23 type  3   force =     0.81313155    0.66076011    3.45031241
     atom   24 type  3   force =    -0.81312694   -0.66076694   -3.45031315
     atom   25 type  3   force =     1.14830218   -1.77277551    1.28727953
     atom   26 type  3   force =    -1.14830053    1.77277836   -1.28728092
     atom   27 type  4   force =     2.75202047   -1.39904891    0.55979277
     atom   28 type  4   force =    -2.75201607    1.39904615   -0.55979150
     atom   29 type  3   force =    -2.69405299    0.76364745    1.70483825
     atom   30 type  3   force =     2.69404937   -0.76364947   -1.70483885
     atom   31 type  4   force =    -2.83687574    1.06744638    0.22019852
     atom   32 type  4   force =     2.83687989   -1.06744609   -0.22019930
     atom   33 type  3   force =    -3.65928752    0.81656705    0.46952077
     atom   34 type  3   force =     3.65929121   -0.81657607   -0.46951835
     atom   35 type  3   force =    -0.08105317   -1.00874226   -0.36858094
     atom   36 type  3   force =     0.08105921    1.00874177    0.36857258
     atom   37 type  3   force =     4.02017390   -1.03976982    1.78622291
     atom   38 type  3   force =    -4.02017802    1.03976485   -1.78621899
     atom   39 type  4   force =     2.85598686   -1.44986164    0.64180025
     atom   40 type  4   force =    -2.85598769    1.44986563   -0.64180151
     atom   41 type  3   force =     3.89863815    1.14154288    3.20241461
     atom   42 type  3   force =    -3.89864099   -1.14153662   -3.20242058
     atom   43 type  4   force =     2.27631226    0.78124514    2.36196437
     atom   44 type  4   force =    -2.27631255   -0.78124725   -2.36196406
     atom   45 type  3   force =     0.32060320    1.52587384    0.75489261
     atom   46 type  3   force =    -0.32059144   -1.52587368   -0.75489924
     atom   47 type  3   force =    -3.76744094    2.04272696   -0.25020432
     atom   48 type  3   force =     3.76744220   -2.04273155    0.25019661
     atom   49 type  4   force =    -2.70950695    1.68973174   -0.02835458
     atom   50 type  4   force =     2.70950394   -1.68973236    0.02835165
     atom   51 type  3   force =    -3.30811497   -0.39818564   -1.23373441
     atom   52 type  3   force =     3.30810971    0.39818729    1.23373710
     atom   53 type  4   force =    -2.16192213   -0.79649757   -1.56293233
     atom   54 type  4   force =     2.16192205    0.79649771    1.56293183
     atom   55 type  3   force =    -4.12784567    0.28099832   -0.28157991
     atom   56 type  3   force =     4.12783256   -0.28099825    0.28159171
     atom   57 type  4   force =    -2.84598180   -1.50645502   -0.85647011
     atom   58 type  4   force =     2.84598529    1.50646113    0.85647010
     atom   59 type  3   force =    -0.43808710   -1.13953205   -2.90888880
     atom   60 type  3   force =     0.43808501    1.13952478    2.90888241
     atom   61 type  3   force =     3.67120448   -0.04583835   -3.61565089
     atom   62 type  3   force =    -3.67120241    0.04585034    3.61563713
     atom   63 type  4   force =     2.72403767   -0.00961970   -1.96690366
     atom   64 type  4   force =    -2.72404051    0.00961724    1.96690715
     atom   65 type  3   force =     3.92858714    1.08607770   -2.76633340
     atom   66 type  3   force =    -3.92858056   -1.08608456    2.76633564
     atom   67 type  4   force =     2.49370733    1.85555833   -0.26186412
     atom   68 type  4   force =    -2.49370480   -1.85555396    0.26186434
     atom   69 type  3   force =     0.36542704   -1.97943351   -3.53745500
     atom   70 type  3   force =    -0.36543375    1.97943396    3.53745515
     atom   71 type  3   force =    -4.20855055   -2.91879859   -1.20358166
     atom   72 type  3   force =     4.20854913    2.91880083    1.20358261
     atom   73 type  4   force =    -2.91622862   -0.76061579    0.85902576
     atom   74 type  4   force =     2.91622952    0.76061612   -0.85902630
     atom   75 type  3   force =    -3.88405542   -3.36130168   -2.13327079
     atom   76 type  3   force =     3.88405597    3.36129495    2.13326998
     atom   77 type  4   force =    -2.47367604   -2.28725349   -0.81452573
     atom   78 type  4   force =     2.47367833    2.28725783    0.81452566
     atom   79 type  3   force =     3.25226144    4.00319671    5.50976568
     atom   80 type  3   force =    -3.25226806   -4.00319392   -5.50977154
     atom   81 type  3   force =     0.90333904   -3.58467359   -5.91719848
     atom   82 type  3   force =    -0.90334203    3.58468445    5.91720385
     atom   83 type  5   force =   -18.18489497   10.85674252   -3.65475435
     atom   84 type  5   force =    18.18489578  -10.85675181    3.65475742
     atom   85 type  5   force =    10.54425658    4.70875654  -18.47129853
     atom   86 type  5   force =   -10.54425869   -4.70876256   18.47130171
     atom   87 type  5   force =    -2.69355978  -19.11402451    3.41520321
     atom   88 type  5   force =     2.69356899   19.11402761   -3.41519230
     atom   89 type  5   force =   -17.70949076    1.60927067   -0.36744286
     atom   90 type  5   force =    17.70951390   -1.60927550    0.36744295
     atom   91 type  5   force =     6.18854169   17.54207100   -8.20175669
     atom   92 type  5   force =    -6.18856131  -17.54208403    8.20176789
     atom   93 type  5   force =     8.55666412   -6.37162695   11.43274465
     atom   94 type  5   force =    -8.55666734    6.37163591  -11.43274791
     The local contribution  to forces
     atom    1 type  1   force =    -9.52179544    4.12502687   -1.28467622
     atom    2 type  1   force =     9.52180383   -4.12503553    1.28468036
     atom    3 type  2   force =    -5.30230939   -3.84025825   -0.04687739
     atom    4 type  2   force =     5.30230180    3.84026302    0.04688059
     atom    5 type  3   force =     2.06875335   -3.29832125   -3.35283071
     atom    6 type  3   force =    -2.06875057    3.29832392    3.35284237
     atom    7 type  4   force =     1.14974669   -2.09198750   -1.52426977
     atom    8 type  4   force =    -1.14974293    2.09198557    1.52426986
     atom    9 type  3   force =     2.91866066   -3.60655220   -1.65102190
     atom   10 type  3   force =    -2.91865846    3.60655055    1.65100380
     atom   11 type  4   force =     2.17613069   -1.52998646    0.19863667
     atom   12 type  4   force =    -2.17613205    1.52998617   -0.19863644
     atom   13 type  3   force =    -1.02054358   -1.85667443   -2.56389943
     atom   14 type  3   force =     1.02053548    1.85667547    2.56389798
     atom   15 type  3   force =    -2.78608371    2.43509320   -1.12124021
     atom   16 type  3   force =     2.78608285   -2.43510249    1.12125060
     atom   17 type  4   force =    -1.20060132    2.19613932    0.52611795
     atom   18 type  4   force =     1.20060399   -2.19613835   -0.52612114
     atom   19 type  3   force =    -3.17120257    1.29182990   -3.01265056
     atom   20 type  3   force =     3.17120815   -1.29182830    3.01263956
     atom   21 type  4   force =    -2.05104623    0.89179616   -1.26338194
     atom   22 type  4   force =     2.05104601   -0.89179926    1.26338260
     atom   23 type  3   force =    -0.85626635   -0.66918646   -3.48008290
     atom   24 type  3   force =     0.85626199    0.66919333    3.48008377
     atom   25 type  3   force =    -1.16536601    1.83555809   -1.25464448
     atom   26 type  3   force =     1.16536340   -1.83556050    1.25464564
     atom   27 type  4   force =    -2.33242463    1.20424592   -0.50301518
     atom   28 type  4   force =     2.33242292   -1.20424455    0.50301440
     atom   29 type  3   force =     2.72158765   -0.79138598   -1.74814102
     atom   30 type  3   force =    -2.72158480    0.79138774    1.74814116
     atom   31 type  4   force =     2.43220197   -0.86001416   -0.24476167
     atom   32 type  4   force =    -2.43220462    0.86001329    0.24476243
     atom   33 type  3   force =     3.44589264   -0.73293098   -0.48751379
     atom   34 type  3   force =    -3.44589562    0.73293991    0.48751129
     atom   35 type  3   force =     0.07837035    1.00161841    0.37409252
     atom   36 type  3   force =    -0.07837640   -1.00161778   -0.37408464
     atom   37 type  3   force =    -4.04565803    1.04070917   -1.75652355
     atom   38 type  3   force =     4.04566248   -1.04070443    1.75651975
     atom   39 type  4   force =    -2.46920777    1.21163599   -0.60754254
     atom   40 type  4   force =     2.46920773   -1.21163916    0.60754344
     atom   41 type  3   force =    -3.89163348   -1.15076029   -3.24229271
     atom   42 type  3   force =     3.89163588    1.15075397    3.24229781
     atom   43 type  4   force =    -1.97488065   -0.68650896   -2.02786514
     atom   44 type  4   force =     1.97488138    0.68651102    2.02786539
     atom   45 type  3   force =    -0.30053879   -1.73899292   -0.88754596
     atom   46 type  3   force =     0.30052712    1.73899276    0.88755268
     atom   47 type  3   force =     3.78095977   -2.06858543    0.21284070
     atom   48 type  3   force =    -3.78096082    2.06858966   -0.21283324
     atom   49 type  4   force =     2.32377261   -1.44786740   -0.01777877
     atom   50 type  4   force =    -2.32377102    1.44786861    0.01778126
     atom   51 type  3   force =     3.32296479    0.40543134    1.25422262
     atom   52 type  3   force =    -3.32295973   -0.40543299   -1.25422526
     atom   53 type  4   force =     1.85115129    0.70066046    1.24676152
     atom   54 type  4   force =    -1.85115121   -0.70066065   -1.24676097
     atom   55 type  3   force =     4.00560129   -0.26069740    0.32675591
     atom   56 type  3   force =    -4.00558996    0.26069729   -0.32676794
     atom   57 type  4   force =     2.47654184    1.22912502    0.74972876
     atom   58 type  4   force =    -2.47654292   -1.22912869   -0.74972807
     atom   59 type  3   force =     0.44386982    1.16583861    2.93891820
     atom   60 type  3   force =    -0.44386761   -1.16583160   -2.93891217
     atom   61 type  3   force =    -3.66169686    0.06597982    3.60162236
     atom   62 type  3   force =     3.66169570   -0.06599151   -3.60160931
     atom   63 type  4   force =    -2.34502364    0.02566405    1.71157192
     atom   64 type  4   force =     2.34502429   -0.02566195   -1.71157382
     atom   65 type  3   force =    -3.91676822   -1.10956010    2.70908377
     atom   66 type  3   force =     3.91676152    1.10956643   -2.70908603
     atom   67 type  4   force =    -2.17238167   -1.52826966    0.32336108
     atom   68 type  4   force =     2.17238067    1.52826713   -0.32336094
     atom   69 type  3   force =    -0.34845997    1.88426178    3.41765657
     atom   70 type  3   force =     0.34846645   -1.88426249   -3.41765708
     atom   71 type  3   force =     4.20395970    2.86433454    1.19189706
     atom   72 type  3   force =    -4.20395831   -2.86433687   -1.19189832
     atom   73 type  4   force =     2.53265128    0.74274878   -0.61251443
     atom   74 type  4   force =    -2.53265210   -0.74274902    0.61251496
     atom   75 type  3   force =     3.89326564    3.34960308    2.14205764
     atom   76 type  3   force =    -3.89326655   -3.34959678   -2.14205699
     atom   77 type  4   force =     2.15415820    1.96740700    0.74868928
     atom   78 type  4   force =    -2.15415881   -1.96740962   -0.74868900
     atom   79 type  3   force =    -2.89632975   -3.65759536   -4.94676830
     atom   80 type  3   force =     2.89633625    3.65759292    4.94677386
     atom   81 type  3   force =    -0.82903921    3.13392566    5.41101532
     atom   82 type  3   force =     0.82904157   -3.13393599   -5.41102113
     atom   83 type  5   force =    15.06247067   -9.66332216    2.65073803
     atom   84 type  5   force =   -15.06247156    9.66333220   -2.65074083
     atom   85 type  5   force =    -9.18302244   -4.60607177   15.24788270
     atom   86 type  5   force =     9.18302494    4.60607802  -15.24788572
     atom   87 type  5   force =     1.92896749   15.49630280   -3.38232731
     atom   88 type  5   force =    -1.92897297  -15.49630759    3.38232080
     atom   89 type  5   force =    14.63391349   -0.88509436    1.33675881
     atom   90 type  5   force =   -14.63393142    0.88509827   -1.33676126
     atom   91 type  5   force =    -5.21695683  -14.43378342    7.71140527
     atom   92 type  5   force =     5.21697151   14.43379459   -7.71141557
     atom   93 type  5   force =    -7.17569694    5.67421608   -8.48534835
     atom   94 type  5   force =     7.17570040   -5.67422560    8.48535241
     The core correction contribution to forces
     atom    1 type  1   force =     0.01438875   -0.00555787    0.00051867
     atom    2 type  1   force =    -0.01438872    0.00555789   -0.00051867
     atom    3 type  2   force =     0.01333676    0.01275718    0.00699163
     atom    4 type  2   force =    -0.01333682   -0.01275719   -0.00699161
     atom    5 type  3   force =    -0.00135419    0.00417189    0.00183081
     atom    6 type  3   force =     0.00135422   -0.00417183   -0.00183072
     atom    7 type  4   force =     0.00000000    0.00000000    0.00000000
     atom    8 type  4   force =     0.00000000    0.00000000    0.00000000
     atom    9 type  3   force =    -0.00337931    0.00244466   -0.00147593
     atom   10 type  3   force =     0.00337932   -0.00244470    0.00147587
     atom   11 type  4   force =     0.00000000    0.00000000    0.00000000
     atom   12 type  4   force =     0.00000000    0.00000000    0.00000000
     atom   13 type  3   force =     0.00111811    0.00163766    0.00209494
     atom   14 type  3   force =    -0.00111818   -0.00163762   -0.00209494
     atom   15 type  3   force =     0.00210579   -0.00389396   -0.00116359
     atom   16 type  3   force =    -0.00210575    0.00389394    0.00116363
     atom   17 type  4   force =     0.00000000    0.00000000    0.00000000
     atom   18 type  4   force =     0.00000000    0.00000000    0.00000000
     atom   19 type  3   force =     0.00332650   -0.00212618    0.00147711
     atom   20 type  3   force =    -0.00332650    0.00212615   -0.00147716
     atom   21 type  4   force =     0.00000000    0.00000000    0.00000000
     atom   22 type  4   force =     0.00000000    0.00000000    0.00000000
     atom   23 type  3   force =    -0.00212399   -0.00186190   -0.00300666
     atom   24 type  3   force =     0.00212392    0.00186197    0.00300667
     atom   25 type  3   force =     0.00628344    0.00263462    0.00531545
     atom   26 type  3   force =    -0.00628338   -0.00263467   -0.00531545
     atom   27 type  4   force =     0.00000000    0.00000000    0.00000000
     atom   28 type  4   force =     0.00000000    0.00000000    0.00000000
     atom   29 type  3   force =    -0.00539074   -0.00224661   -0.00511639
     atom   30 type  3   force =     0.00539076    0.00224661    0.00511638
     atom   31 type  4   force =     0.00000000    0.00000000    0.00000000
     atom   32 type  4   force =     0.00000000    0.00000000    0.00000000
     atom   33 type  3   force =     0.00700818   -0.00321360   -0.00026903
     atom   34 type  3   force =    -0.00700825    0.00321361    0.00026901
     atom   35 type  3   force =    -0.00140626    0.00312197    0.00287389
     atom   36 type  3   force =     0.00140624   -0.00312193   -0.00287387
     atom   37 type  3   force =     0.00393535   -0.00298906    0.00067263
     atom   38 type  3   force =    -0.00393536    0.00298906   -0.00067265
     atom   39 type  4   force =     0.00000000    0.00000000    0.00000000
     atom   40 type  4   force =     0.00000000    0.00000000    0.00000000
     atom   41 type  3   force =     0.00311358    0.00158556    0.00328698
     atom   42 type  3   force =    -0.00311353   -0.00158558   -0.00328694
     atom   43 type  4   force =     0.00000000    0.00000000    0.00000000
     atom   44 type  4   force =     0.00000000    0.00000000    0.00000000
     atom   45 type  3   force =     0.00032614   -0.00698953   -0.00537188
     atom   46 type  3   force =    -0.00032623    0.00698955    0.00537185
     atom   47 type  3   force =    -0.00321413    0.00308790    0.00030389
     atom   48 type  3   force =     0.00321412   -0.00308785   -0.00030385
     atom   49 type  4   force =     0.00000000    0.00000000    0.00000000
     atom   50 type  4   force =     0.00000000    0.00000000    0.00000000
     atom   51 type  3   force =    -0.00236250   -0.00192437   -0.00360013
     atom   52 type  3   force =     0.00236253    0.00192434    0.00360011
     atom   53 type  4   force =     0.00000000    0.00000000    0.00000000
     atom   54 type  4   force =     0.00000000    0.00000000    0.00000000
     atom   55 type  3   force =    -0.00054153   -0.00589306   -0.00504546
     atom   56 type  3   force =     0.00054164    0.00589309    0.00504540
     atom   57 type  4   force =     0.00000000    0.00000000    0.00000000
     atom   58 type  4   force =     0.00000000    0.00000000    0.00000000
     atom   59 type  3   force =    -0.00042757    0.00206266    0.00252542
     atom   60 type  3   force =     0.00042761   -0.00206259   -0.00252539
     atom   61 type  3   force =     0.00367427    0.00024599   -0.00290801
     atom   62 type  3   force =    -0.00367433   -0.00024603    0.00290805
     atom   63 type  4   force =     0.00000000    0.00000000    0.00000000
     atom   64 type  4   force =     0.00000000    0.00000000    0.00000000
     atom   65 type  3   force =     0.00384372    0.00307418   -0.00063522
     atom   66 type  3   force =    -0.00384372   -0.00307414    0.00063524
     atom   67 type  4   force =     0.00000000    0.00000000    0.00000000
     atom   68 type  4   force =     0.00000000    0.00000000    0.00000000
     atom   69 type  3   force =    -0.00031306   -0.00270584   -0.00238460
     atom   70 type  3   force =     0.00031311    0.00270586    0.00238457
     atom   71 type  3   force =    -0.00361342   -0.00067581    0.00251551
     atom   72 type  3   force =     0.00361341    0.00067578   -0.00251551
     atom   73 type  4   force =     0.00000000    0.00000000    0.00000000
     atom   74 type  4   force =     0.00000000    0.00000000    0.00000000
     atom   75 type  3   force =    -0.00255421   -0.00349172   -0.00082631
     atom   76 type  3   force =     0.00255424    0.00349175    0.00082631
     atom   77 type  4   force =     0.00000000    0.00000000    0.00000000
     atom   78 type  4   force =     0.00000000    0.00000000    0.00000000
     atom   79 type  3   force =     0.00302766    0.00130454    0.00480156
     atom   80 type  3   force =    -0.00302763   -0.00130454   -0.00480157
     atom   81 type  3   force =     0.00129024   -0.00783078   -0.00821864
     atom   82 type  3   force =    -0.00129017    0.00783074    0.00821861
     atom   83 type  5   force =    -0.00716511    0.00222014   -0.00314724
     atom   84 type  5   force =     0.00716511   -0.00222013    0.00314724
     atom   85 type  5   force =     0.00226427   -0.00021353   -0.00770141
     atom   86 type  5   force =    -0.00226426    0.00021354    0.00770141
     atom   87 type  5   force =    -0.00204258   -0.00807192   -0.00081675
     atom   88 type  5   force =     0.00204260    0.00807191    0.00081677
     atom   89 type  5   force =    -0.00804551    0.00238562    0.00291524
     atom   90 type  5   force =     0.00804551   -0.00238562   -0.00291525
     atom   91 type  5   force =     0.00229203    0.00850493   -0.00088991
     atom   92 type  5   force =    -0.00229204   -0.00850493    0.00088991
     atom   93 type  5   force =     0.00346661   -0.00153801    0.00801577
     atom   94 type  5   force =    -0.00346661    0.00153801   -0.00801577
     The Hubbard contrib.    to forces
     atom    1 type  1   force =     0.00000000    0.00000000    0.00000000
     atom    2 type  1   force =     0.00000000    0.00000000    0.00000000
     atom    3 type  2   force =     0.00000000    0.00000000    0.00000000
     atom    4 type  2   force =     0.00000000    0.00000000    0.00000000
     atom    5 type  3   force =     0.00000000    0.00000000    0.00000000
     atom    6 type  3   force =     0.00000000    0.00000000    0.00000000
     atom    7 type  4   force =     0.00000000    0.00000000    0.00000000
     atom    8 type  4   force =     0.00000000    0.00000000    0.00000000
     atom    9 type  3   force =     0.00000000    0.00000000    0.00000000
     atom   10 type  3   force =     0.00000000    0.00000000    0.00000000
     atom   11 type  4   force =     0.00000000    0.00000000    0.00000000
     atom   12 type  4   force =     0.00000000    0.00000000    0.00000000
     atom   13 type  3   force =     0.00000000    0.00000000    0.00000000
     atom   14 type  3   force =     0.00000000    0.00000000    0.00000000
     atom   15 type  3   force =     0.00000000    0.00000000    0.00000000
     atom   16 type  3   force =     0.00000000    0.00000000    0.00000000
     atom   17 type  4   force =     0.00000000    0.00000000    0.00000000
     atom   18 type  4   force =     0.00000000    0.00000000    0.00000000
     atom   19 type  3   force =     0.00000000    0.00000000    0.00000000
     atom   20 type  3   force =     0.00000000    0.00000000    0.00000000
     atom   21 type  4   force =     0.00000000    0.00000000    0.00000000
     atom   22 type  4   force =     0.00000000    0.00000000    0.00000000
     atom   23 type  3   force =     0.00000000    0.00000000    0.00000000
     atom   24 type  3   force =     0.00000000    0.00000000    0.00000000
     atom   25 type  3   force =     0.00000000    0.00000000    0.00000000
     atom   26 type  3   force =     0.00000000    0.00000000    0.00000000
     atom   27 type  4   force =     0.00000000    0.00000000    0.00000000
     atom   28 type  4   force =     0.00000000    0.00000000    0.00000000
     atom   29 type  3   force =     0.00000000    0.00000000    0.00000000
     atom   30 type  3   force =     0.00000000    0.00000000    0.00000000
     atom   31 type  4   force =     0.00000000    0.00000000    0.00000000
     atom   32 type  4   force =     0.00000000    0.00000000    0.00000000
     atom   33 type  3   force =     0.00000000    0.00000000    0.00000000
     atom   34 type  3   force =     0.00000000    0.00000000    0.00000000
     atom   35 type  3   force =     0.00000000    0.00000000    0.00000000
     atom   36 type  3   force =     0.00000000    0.00000000    0.00000000
     atom   37 type  3   force =     0.00000000    0.00000000    0.00000000
     atom   38 type  3   force =     0.00000000    0.00000000    0.00000000
     atom   39 type  4   force =     0.00000000    0.00000000    0.00000000
     atom   40 type  4   force =     0.00000000    0.00000000    0.00000000
     atom   41 type  3   force =     0.00000000    0.00000000    0.00000000
     atom   42 type  3   force =     0.00000000    0.00000000    0.00000000
     atom   43 type  4   force =     0.00000000    0.00000000    0.00000000
     atom   44 type  4   force =     0.00000000    0.00000000    0.00000000
     atom   45 type  3   force =     0.00000000    0.00000000    0.00000000
     atom   46 type  3   force =     0.00000000    0.00000000    0.00000000
     atom   47 type  3   force =     0.00000000    0.00000000    0.00000000
     atom   48 type  3   force =     0.00000000    0.00000000    0.00000000
     atom   49 type  4   force =     0.00000000    0.00000000    0.00000000
     atom   50 type  4   force =     0.00000000    0.00000000    0.00000000
     atom   51 type  3   force =     0.00000000    0.00000000    0.00000000
     atom   52 type  3   force =     0.00000000    0.00000000    0.00000000
     atom   53 type  4   force =     0.00000000    0.00000000    0.00000000
     atom   54 type  4   force =     0.00000000    0.00000000    0.00000000
     atom   55 type  3   force =     0.00000000    0.00000000    0.00000000
     atom   56 type  3   force =     0.00000000    0.00000000    0.00000000
     atom   57 type  4   force =     0.00000000    0.00000000    0.00000000
     atom   58 type  4   force =     0.00000000    0.00000000    0.00000000
     atom   59 type  3   force =     0.00000000    0.00000000    0.00000000
     atom   60 type  3   force =     0.00000000    0.00000000    0.00000000
     atom   61 type  3   force =     0.00000000    0.00000000    0.00000000
     atom   62 type  3   force =     0.00000000    0.00000000    0.00000000
     atom   63 type  4   force =     0.00000000    0.00000000    0.00000000
     atom   64 type  4   force =     0.00000000    0.00000000    0.00000000
     atom   65 type  3   force =     0.00000000    0.00000000    0.00000000
     atom   66 type  3   force =     0.00000000    0.00000000    0.00000000
     atom   67 type  4   force =     0.00000000    0.00000000    0.00000000
     atom   68 type  4   force =     0.00000000    0.00000000    0.00000000
     atom   69 type  3   force =     0.00000000    0.00000000    0.00000000
     atom   70 type  3   force =     0.00000000    0.00000000    0.00000000
     atom   71 type  3   force =     0.00000000    0.00000000    0.00000000
     atom   72 type  3   force =     0.00000000    0.00000000    0.00000000
     atom   73 type  4   force =     0.00000000    0.00000000    0.00000000
     atom   74 type  4   force =     0.00000000    0.00000000    0.00000000
     atom   75 type  3   force =     0.00000000    0.00000000    0.00000000
     atom   76 type  3   force =     0.00000000    0.00000000    0.00000000
     atom   77 type  4   force =     0.00000000    0.00000000    0.00000000
     atom   78 type  4   force =     0.00000000    0.00000000    0.00000000
     atom   79 type  3   force =     0.00000000    0.00000000    0.00000000
     atom   80 type  3   force =     0.00000000    0.00000000    0.00000000
     atom   81 type  3   force =     0.00000000    0.00000000    0.00000000
     atom   82 type  3   force =     0.00000000    0.00000000    0.00000000
     atom   83 type  5   force =     0.00000000    0.00000000    0.00000000
     atom   84 type  5   force =     0.00000000    0.00000000    0.00000000
     atom   85 type  5   force =     0.00000000    0.00000000    0.00000000
     atom   86 type  5   force =     0.00000000    0.00000000    0.00000000
     atom   87 type  5   force =     0.00000000    0.00000000    0.00000000
     atom   88 type  5   force =     0.00000000    0.00000000    0.00000000
     atom   89 type  5   force =     0.00000000    0.00000000    0.00000000
     atom   90 type  5   force =     0.00000000    0.00000000    0.00000000
     atom   91 type  5   force =     0.00000000    0.00000000    0.00000000
     atom   92 type  5   force =     0.00000000    0.00000000    0.00000000
     atom   93 type  5   force =     0.00000000    0.00000000    0.00000000
     atom   94 type  5   force =     0.00000000    0.00000000    0.00000000
     The SCF correction term to forces
     atom    1 type  1   force =    -0.00000439    0.00000331    0.00000046
     atom    2 type  1   force =     0.00000378   -0.00000309   -0.00000049
     atom    3 type  2   force =    -0.00000026   -0.00000065   -0.00000002
     atom    4 type  2   force =     0.00000023    0.00000063    0.00000049
     atom    5 type  3   force =    -0.00000004    0.00000102    0.00000067
     atom    6 type  3   force =     0.00000003   -0.00000102   -0.00000095
     atom    7 type  4   force =    -0.00000002    0.00000052    0.00000017
     atom    8 type  4   force =     0.00000001   -0.00000051   -0.00000024
     atom    9 type  3   force =    -0.00000038   -0.00000014   -0.00000010
     atom   10 type  3   force =     0.00000033    0.00000028   -0.00000012
     atom   11 type  4   force =    -0.00000012    0.00000007   -0.00000003
     atom   12 type  4   force =     0.00000013   -0.00000005   -0.00000003
     atom   13 type  3   force =    -0.00000040   -0.00000183   -0.00000090
     atom   14 type  3   force =     0.00000032    0.00000198    0.00000067
     atom   15 type  3   force =     0.00000008   -0.00000228   -0.00000060
     atom   16 type  3   force =    -0.00000002    0.00000231    0.00000046
     atom   17 type  4   force =     0.00000008   -0.00000070   -0.00000023
     atom   18 type  4   force =    -0.00000005    0.00000064    0.00000015
     atom   19 type  3   force =     0.00000038   -0.00000131    0.00000036
     atom   20 type  3   force =    -0.00000032    0.00000141   -0.00000038
     atom   21 type  4   force =     0.00000015   -0.00000051    0.00000008
     atom   22 type  4   force =    -0.00000016    0.00000052   -0.00000010
     atom   23 type  3   force =     0.00000041    0.00000034    0.00000093
     atom   24 type  3   force =    -0.00000035   -0.00000040   -0.00000110
     atom   25 type  3   force =     0.00000005    0.00000114    0.00000107
     atom   26 type  3   force =    -0.00000003   -0.00000115   -0.00000116
     atom   27 type  4   force =    -0.00000014    0.00000011    0.00000015
     atom   28 type  4   force =     0.00000012   -0.00000012   -0.00000018
     atom   29 type  3   force =     0.00000043    0.00000153    0.00000084
     atom   30 type  3   force =    -0.00000027   -0.00000156   -0.00000085
     atom   31 type  4   force =     0.00000021    0.00000042    0.00000008
     atom   32 type  4   force =    -0.00000017   -0.00000043   -0.00000010
     atom   33 type  3   force =    -0.00000339    0.00000226    0.00000019
     atom   34 type  3   force =     0.00000298   -0.00000213   -0.00000014
     atom   35 type  3   force =    -0.00000023    0.00000021   -0.00000038
     atom   36 type  3   force =     0.00000022   -0.00000020    0.00000057
     atom   37 type  3   force =    -0.00000036    0.00000014    0.00000001
     atom   38 type  3   force =     0.00000028    0.00000009    0.00000047
     atom   39 type  4   force =    -0.00000017    0.00000020    0.00000011
     atom   40 type  4   force =     0.00000017   -0.00000015    0.00000002
     atom   41 type  3   force =    -0.00000021   -0.00000051   -0.00000020
     atom   42 type  3   force =     0.00000033    0.00000053    0.00000065
     atom   43 type  4   force =    -0.00000008   -0.00000010   -0.00000009
     atom   44 type  4   force =     0.00000005    0.00000008    0.00000015
     atom   45 type  3   force =    -0.00000002   -0.00000039    0.00000029
     atom   46 type  3   force =     0.00000015    0.00000028    0.00000004
     atom   47 type  3   force =     0.00000009   -0.00000053   -0.00000025
     atom   48 type  3   force =    -0.00000015    0.00000059    0.00000056
     atom   49 type  4   force =    -0.00000007   -0.00000007   -0.00000007
     atom   50 type  4   force =     0.00000007    0.00000008    0.00000015
     atom   51 type  3   force =     0.00000021   -0.00000005   -0.00000066
     atom   52 type  3   force =    -0.00000009    0.00000015    0.00000098
     atom   53 type  4   force =     0.00000011    0.00000022   -0.00000013
     atom   54 type  4   force =    -0.00000011   -0.00000019    0.00000017
     atom   55 type  3   force =     0.00000018   -0.00000034   -0.00000041
     atom   56 type  3   force =    -0.00000025    0.00000027    0.00000071
     atom   57 type  4   force =     0.00000009   -0.00000004   -0.00000014
     atom   58 type  4   force =    -0.00000010    0.00000002    0.00000023
     atom   59 type  3   force =     0.00000015    0.00000025   -0.00000030
     atom   60 type  3   force =    -0.00000014   -0.00000029    0.00000051
     atom   61 type  3   force =    -0.00000012    0.00000064    0.00000012
     atom   62 type  3   force =     0.00000015   -0.00000064    0.00000007
     atom   63 type  4   force =    -0.00000004    0.00000012    0.00000002
     atom   64 type  4   force =     0.00000004   -0.00000012    0.00000005
     atom   65 type  3   force =    -0.00000023    0.00000158    0.00000103
     atom   66 type  3   force =     0.00000021   -0.00000159   -0.00000092
     atom   67 type  4   force =    -0.00000007    0.00000035    0.00000031
     atom   68 type  4   force =     0.00000007   -0.00000035   -0.00000029
     atom   69 type  3   force =     0.00000004    0.00000248    0.00000156
     atom   70 type  3   force =    -0.00000005   -0.00000248   -0.00000153
     atom   71 type  3   force =     0.00000028    0.00000188    0.00000055
     atom   72 type  3   force =    -0.00000025   -0.00000187   -0.00000050
     atom   73 type  4   force =     0.00000002    0.00000054    0.00000014
     atom   74 type  4   force =    -0.00000001   -0.00000054   -0.00000014
     atom   75 type  3   force =     0.00000031    0.00000066   -0.00000041
     atom   76 type  3   force =    -0.00000034   -0.00000071    0.00000056
     atom   77 type  4   force =     0.00000002    0.00000011   -0.00000015
     atom   78 type  4   force =    -0.00000001   -0.00000013    0.00000018
     atom   79 type  3   force =    -0.00000041   -0.00000249   -0.00000140
     atom   80 type  3   force =     0.00000041    0.00000251    0.00000108
     atom   81 type  3   force =     0.00000009    0.00000160    0.00000118
     atom   82 type  3   force =    -0.00000011   -0.00000166   -0.00000132
     atom   83 type  5   force =    -0.00000045   -0.00000420   -0.00000244
     atom   84 type  5   force =     0.00000039    0.00000432    0.00000190
     atom   85 type  5   force =     0.00000006   -0.00000407   -0.00000271
     atom   86 type  5   force =     0.00000000    0.00000412    0.00000209
     atom   87 type  5   force =    -0.00000082   -0.00000335   -0.00000142
     atom   88 type  5   force =     0.00000081    0.00000313    0.00000091
     atom   89 type  5   force =     0.00000253    0.00000112    0.00000008
     atom   90 type  5   force =    -0.00000252   -0.00000120   -0.00000040
     atom   91 type  5   force =    -0.00000062   -0.00000277    0.00000122
     atom   92 type  5   force =     0.00000051    0.00000277   -0.00000151
     atom   93 type  5   force =    -0.00000112    0.00000292   -0.00000159
     atom   94 type  5   force =     0.00000109   -0.00000311    0.00000123

     Total force =     2.630720     Total SCF correction =     0.000019

     BFGS Geometry Optimization
     Energy error            =      0.0E+00 Ry
     Gradient error          =      4.9E-01 Ry/Bohr

     number of scf cycles    =   1
     number of bfgs steps    =   0

     energy             new  =   -1319.5635841025 Ry

     new trust radius        =       0.5000000000 bohr
     new conv_thr            =            1.0E-10 Ry


ATOMIC_POSITIONS (angstrom)
O             6.6072327776        5.9021578050        5.4523894060
O             2.3952862224        8.2794631950       11.4127255940
N             4.4136417421       10.4618659438        9.0435457314
N             4.5888762579        3.7197540562        7.8215692686
C             2.7524278276        4.6730398789        2.2678635302
C             6.2500911724        9.5085811211       14.5972514698
H             2.3410083594        5.7031081352        2.7883355839
H             6.6615096406        8.4785118648       14.0767784161
C             2.0994256047        4.1713422248        1.3612536704
C             6.9030923953       10.0102777752       15.5038613296
H             1.0781180398        4.6908190641        0.9719264371
H             7.9243999602        9.4908009359       15.8931875629
C             2.4505953816        3.0742665506        0.7619955264
C             6.5519226184       11.1073544494       16.1031184736
C             3.5184824683        2.5901803933        1.2399889042
C             5.4840365317       11.5914406067       15.6251250958
H             3.8950087241        1.5366270007        0.7605684857
H             5.1075092759       12.6449929993       16.1045465143
C             4.1783868454        3.1115054775        2.1435017182
C             4.8241311546       11.0701145225       14.7216132818
H             5.1969420137        2.5744548773        2.5307553828
H             3.8055769863       11.6071661227       14.3343596172
C             3.8736938441        4.2417063559        2.7673149944
C             5.1288241559        9.9399146441       14.0978000056
C             4.5803738869        4.8626645881        3.6940511831
C             4.4221451131        9.3189554119       13.1710638169
H             5.6854884986        4.3879617835        3.8749385460
H             3.3170295014        9.7936582165       12.9901764540
C             4.5386216864        5.8492512088        4.5149914996
C             4.4638963136        8.3323687912       12.3501235004
H             3.4543197595        6.3602189927        4.4134401934
H             5.5481982405        7.8214020073       12.4516748066
C             5.3674685099        6.4002298707        5.4135256458
C             3.6350494901        7.7813901293       11.4515893542
C             5.0513437691        7.4261940066        6.3263181692
C             3.9511742309        6.7554269934       10.5387968308
C             5.8145666722        7.8200665683        7.3412389891
C             3.1879513278        6.3615534317        9.5238760109
H             6.8526841399        7.1774691684        7.4209160353
H             2.1498348601        7.0041518316        9.4441989647
C             5.5755987895        8.6905850547        8.1328079148
C             3.4269202105        5.4910359453        8.7323070852
H             6.3728475515        8.9550616998        9.0286126560
H             2.6296714485        5.2265583002        7.8365023440
C             4.5098065083        9.4622449420        8.1770417590
C             4.4927114917        4.7193760580        8.6880722410
C             3.7177479115        9.0790562038        7.1614167151
C             5.2847700885        5.1025647962        9.7036982849
H             2.7020296715        9.7342867898        7.0725762010
H             6.3004883285        4.4473332102        9.7925377990
C             3.9601781445        8.1826319376        6.3700863722
C             5.0423398555        5.9989880624       10.4950286278
H             3.1414576436        7.8998856076        5.5146630553
H             5.8610603564        6.2817343924       11.3504519447
C             3.3037363041       10.7249295986        9.6482998396
C             5.6987826959        3.4566904014        7.2168151604
H             2.3920388184        9.9791348555        9.3275426553
H             6.6104791816        4.2024851445        7.5375713447
C             3.0209279509       11.6434937741       10.5601073332
C             5.9815910491        2.5381272259        6.3050076668
C             3.8418037381       12.6223559575       10.8571104439
C             5.1607142619        1.5592650425        6.0080035561
H             3.7098763617        2.5361991409       10.1856656101
H             5.2926426383       11.6454208591        6.6794483899
C             2.5274072167        3.3499800550       11.7344185465
C             6.4751117833       10.8316399450        5.1306964535
H             3.3761544246        4.2160021279       11.9005644980
H             5.6263635754        9.9656178721        4.9645505020
C             7.1530597206        3.4061911593       12.4919366855
C             1.8494592794       10.7754288407        4.3731773145
C             7.4382487819       12.5756367523       12.2192500836
C             1.5642692181        1.6059832477        4.6458649164
H             6.4223645461       12.5486143323       12.8719889330
H             2.5801534539        1.6330056677        3.9931260670
C             7.6205638730       11.7270220584       11.3380444627
C             1.3819551270        2.4545979416        5.5270705373
H             6.7876005915       10.8814853565       11.1542733846
H             2.2149174085        3.3001346435        5.7108416154
C             4.0065868722        6.5980902136       16.5763481847
C             4.9959311278        7.5835307864        0.2887658153
C             6.9452239573        4.3667092537       13.5319552087
C             2.0572950427        9.8149107463        3.3331587913
F             2.6718739701        7.1317278335       16.2486283007
F             6.3306440299        7.0498931665        0.6164856993
F             4.6724544785        6.6536332762       15.2417932727
F             4.3300635215        7.5279877238        1.6233207273
F             3.7291006282        5.1047776905       16.6770593327
F             5.2734183718        9.0768433095        0.1880556673
F             5.6121850162        4.5775358415       13.8789937549
F             3.3903329838        9.6040841585        2.9861202451
F             7.4259384758        5.6531527357       13.2420644940
F             1.5765795242        8.5284682643        3.6230495060
F             7.5774901067        4.0067515330       14.7414244532
F             1.4250288933       10.1748684670        2.1236895468



     Writing config-only to output data dir ./outdir/4amp34.save/
     NEW-OLD atomic charge density approx. for the potential

     Check: negative core charge=   -0.000002

     total cpu time spent up to now is       99.5 secs

     per-process dynamical memory:    66.6 Mb

