 DBCSR| CPU Multiplication driver                                           XSMM (U)
 DBCSR| Multrec recursion limit                                              512 (U)
 DBCSR| Multiplication stack size                                           1000 (D)
 DBCSR| Maximum elements for images                                    UNLIMITED (U)
 DBCSR| Multiplicative factor virtual images                                   1 (U)
 DBCSR| Use multiplication densification                                       T (D)
 DBCSR| Multiplication size stacks                                             3 (U)
 DBCSR| Use memory pool for CPU allocation                                     F (U)
 DBCSR| Number of 3D layers                                               SINGLE (U)
 DBCSR| Use MPI memory allocation                                              F (U)
 DBCSR| Use RMA algorithm                                                      F (U)
 DBCSR| Use Communication thread                                               T (U)
 DBCSR| Communication thread load                                             83 (D)
 DBCSR| MPI: My process id                                                     0
 DBCSR| MPI: Number of processes                                              12
 DBCSR| OMP: Current number of threads                                         2
 DBCSR| OMP: Max number of threads                                             2
 DBCSR| Split modifier for TAS multiplication algorithm                  1.0E+00 (U)


  **** **** ******  **  PROGRAM STARTED AT               2023-12-23 05:20:02.664
 ***** ** ***  *** **   PROGRAM STARTED ON                          78d8c42ade7e
 **    ****   ******    PROGRAM STARTED BY                             <unknown>
 ***** **    ** ** **   PROGRAM PROCESS ID                                   538
  **** **  *******  **  PROGRAM STARTED IN                                  /mnt

 CP2K| version string:                                       CP2K version 2023.2
 CP2K| source code revision number:                                  git:65cca6c
 CP2K| cp2kflags: omp libint fftw3 libxc pexsi elpa parallel scalapack cosma qui
 CP2K|            p xsmm plumed2 spglib sirius libvori libbqb libtorch libvdwxc
 CP2K| is freely available from                            https://www.cp2k.org/
 CP2K| Program compiled at                          Wed Oct 18 11:40:41 UTC 2023
 CP2K| Program compiled on                                          633bb7bf566f
 CP2K| Program compiled for                                                local
 CP2K| Data directory path                                        /opt/cp2k/data
 CP2K| Input file name                                             4amp34_pbe.in

 GLOBAL| Force Environment number                                              1
 GLOBAL| Basis set file name                                      GTH_BASIS_SETS
 GLOBAL| Potential file name                                           POTENTIAL
 GLOBAL| MM Potential file name                                     MM_POTENTIAL
 GLOBAL| Coordinate file name                                      __STD_INPUT__
 GLOBAL| Method name                                                        CP2K
 GLOBAL| Project name                                                 4AMP34_pbe
 GLOBAL| Run type                                                         ENERGY
 GLOBAL| FFT library                                                       FFTW3
 GLOBAL| Diagonalization library                                            ELPA
 GLOBAL| DGEMM library                                                      BLAS
 GLOBAL| Minimum number of eigenvectors for ELPA usage                        16
 GLOBAL| Orthonormality check for eigenvectors                          DISABLED
 GLOBAL| Matrix multiplication library                                     COSMA
 GLOBAL| All-to-all communication in single precision                          F
 GLOBAL| FFTs using library dependent lengths                                  F
 GLOBAL| Grid backend                                                       AUTO
 GLOBAL| Global print level                                                  LOW
 GLOBAL| MPI I/O enabled                                                       T
 GLOBAL| Total number of message passing processes                            12
 GLOBAL| Number of threads for this process                                    2
 GLOBAL| This output is from process                                           0
 GLOBAL| Stack size for threads created by OpenMP (OMP_STACKSIZE)            16M
 GLOBAL| CPU model name                                            AMD EPYC 7B12
 GLOBAL| CPUID                                                              1002
 GLOBAL| Compiled for CPUID                                                    0

 *** HINT in environment.F:904 :: The compiler target flags (generic) used ***
 *** to build this binary cannot exploit all extensions of this CPU model  ***
 *** (x86_avx2). Consider compiler target flags as part of FCFLAGS and     ***
 *** CFLAGS (ARCH file).                                                   ***


 MEMORY| system memory details [Kb]
 MEMORY|                        rank 0           min           max       average
 MEMORY| MemTotal             24593324      24593324      24593324      24593324
 MEMORY| MemFree              17537320      17537320      17537320      17537320
 MEMORY| Buffers                 43288         43288         43288         43288
 MEMORY| Cached                4439036       4439032       4439036       4439032
 MEMORY| Slab                   333636        333636        333636        333636
 MEMORY| SReclaimable           205792        205792        205792        205792
 MEMORY| MemLikelyFree        22225436      22225432      22225436      22225432


 GENERATE|  Preliminary Number of Bonds generated:                             0
 GENERATE|  Achieved consistency in connectivity generation.

 *******************************************************************************
 *******************************************************************************
 **                                                                           **
 **     #####                         ##              ##                      **
 **    ##   ##            ##          ##              ##                      **
 **   ##     ##                       ##            ######                    **
 **   ##     ##  ##   ##  ##   #####  ##  ##   ####   ##    #####    #####    **
 **   ##     ##  ##   ##  ##  ##      ## ##   ##      ##   ##   ##  ##   ##   **
 **   ##  ## ##  ##   ##  ##  ##      ####     ###    ##   ######   ######    **
 **    ##  ###   ##   ##  ##  ##      ## ##      ##   ##   ##       ##        **
 **     #######   #####   ##   #####  ##  ##  ####    ##    #####   ##        **
 **           ##                                                    ##        **
 **                                                                           **
 **                                                ... make the atoms dance   **
 **                                                                           **
 **            Copyright (C) by CP2K developers group (2000-2023)             **
 **                      J. Chem. Phys. 152, 194103 (2020)                    **
 **                                                                           **
 *******************************************************************************


 TOTAL NUMBERS AND MAXIMUM NUMBERS

  Total number of            - Atomic kinds:                                   5
                             - Atoms:                                        224
                             - Shell sets:                                   448
                             - Shells:                                      1388
                             - Primitive Cartesian functions:               1344
                             - Cartesian basis functions:                   3312
                             - Spherical basis functions:                   3148

  Maximum angular momentum of- Orbital basis functions:                        2
                             - Local part of the GTH pseudopotential:          2
                             - Non-local part of the GTH pseudopotential:      0

 *** WARNING in particle_methods.F:677 :: The distance between the atoms ***
 *** 165 and 181 is only 0.254 angstrom and thus smaller than the        ***
 *** threshold of 0.500 angstrom                                         ***


 *** WARNING in particle_methods.F:677 :: The distance between the atoms ***
 *** 166 and 182 is only 0.254 angstrom and thus smaller than the        ***
 *** threshold of 0.500 angstrom                                         ***


 *** WARNING in particle_methods.F:677 :: The distance between the atoms ***
 *** 167 and 183 is only 0.254 angstrom and thus smaller than the        ***
 *** threshold of 0.500 angstrom                                         ***


 *** WARNING in particle_methods.F:677 :: The distance between the atoms ***
 *** 168 and 184 is only 0.254 angstrom and thus smaller than the        ***
 *** threshold of 0.500 angstrom                                         ***



 SCF PARAMETERS         Density guess:                                    ATOMIC
                        --------------------------------------------------------
                        max_scf:                                              30
                        max_scf_history:                                       0
                        max_diis:                                              4
                        --------------------------------------------------------
                        eps_scf:                                        1.00E-06
                        eps_scf_history:                                0.00E+00
                        eps_diis:                                       1.00E-01
                        eps_eigval:                                     1.00E-05
                        --------------------------------------------------------
                        level_shift [a.u.]:                             0.000000
                        --------------------------------------------------------
                        Outer loop SCF in use 
                        No variables optimised in outer loop
                        eps_scf                                         1.00E-06
                        max_scf                                               30
                        No outer loop optimization
                        step_size                                       5.00E-01

 Number of electrons:                                                        888
 Number of occupied orbitals:                                                444
 Number of molecular orbitals:                                               444

 Number of orbital functions:                                               3148
 Number of independent orbital functions:                                   3148

 Extrapolation method: initial_guess


 SCF WAVEFUNCTION OPTIMIZATION

  ----------------------------------- OT ---------------------------------------
  Minimizer      : DIIS                : direct inversion
                                         in the iterative subspace
                                         using   7 DIIS vectors
                                         safer DIIS on
  Preconditioner : FULL_ALL            : diagonalization, state selective
  Precond_solver : DEFAULT
  stepsize       :    0.15000000                  energy_gap     :    0.00100000
  eps_taylor     :   0.10000E-15                  max_taylor     :             4
  ----------------------------------- OT ---------------------------------------

  Step     Update method      Time    Convergence         Total energy    Change
  ------------------------------------------------------------------------------

 *** WARNING in fm/cp_fm_elpa.F:522 :: Setting real_kernel for ELPA failed ***


 *** WARNING in fm/cp_fm_elpa.F:522 :: Setting real_kernel for ELPA failed ***


 *** WARNING in fm/cp_fm_elpa.F:522 :: Setting real_kernel for ELPA failed ***


 *** WARNING in fm/cp_fm_elpa.F:522 :: Setting real_kernel for ELPA failed ***

     1 OT DIIS     0.15E+00    7.1     0.07153672     -1671.1964683889 -1.67E+03

 *** WARNING in fm/cp_fm_elpa.F:522 :: Setting real_kernel for ELPA failed ***

     2 OT DIIS     0.15E+00    3.0     0.07036068     -1667.8537929393  3.34E+00

 *** WARNING in fm/cp_fm_elpa.F:522 :: Setting real_kernel for ELPA failed ***

     3 OT DIIS     0.15E+00    2.8     0.04099570     -1724.0205477529 -5.62E+01

 *** WARNING in fm/cp_fm_elpa.F:522 :: Setting real_kernel for ELPA failed ***

     4 OT DIIS     0.15E+00    2.8     0.10881221     -1652.5170397430  7.15E+01

 *** WARNING in fm/cp_fm_elpa.F:522 :: Setting real_kernel for ELPA failed ***

     5 OT DIIS     0.15E+00    2.8     0.01666283     -1807.8632517740 -1.55E+02

 *** WARNING in fm/cp_fm_elpa.F:522 :: Setting real_kernel for ELPA failed ***

     6 OT DIIS     0.15E+00    2.8     0.02169319     -1822.5940752213 -1.47E+01

 *** WARNING in fm/cp_fm_elpa.F:522 :: Setting real_kernel for ELPA failed ***

     7 OT DIIS     0.15E+00    2.9     0.01122724     -1834.9632979563 -1.24E+01

 *** WARNING in fm/cp_fm_elpa.F:522 :: Setting real_kernel for ELPA failed ***

     8 OT DIIS     0.15E+00    2.9     0.01481146     -1840.3800775211 -5.42E+00

 *** WARNING in fm/cp_fm_elpa.F:522 :: Setting real_kernel for ELPA failed ***

     9 OT DIIS     0.15E+00    2.9     0.00739857     -1848.3335140557 -7.95E+00

 *** WARNING in fm/cp_fm_elpa.F:522 :: Setting real_kernel for ELPA failed ***

    10 OT DIIS     0.15E+00    2.8     0.00968093     -1852.0234794355 -3.69E+00

 *** WARNING in fm/cp_fm_elpa.F:522 :: Setting real_kernel for ELPA failed ***

    11 OT DIIS     0.15E+00    2.9     0.00724609     -1855.8122438730 -3.79E+00

 *** WARNING in fm/cp_fm_elpa.F:522 :: Setting real_kernel for ELPA failed ***

    12 OT DIIS     0.15E+00    2.9     0.00769740     -1858.0059975377 -2.19E+00

 *** WARNING in fm/cp_fm_elpa.F:522 :: Setting real_kernel for ELPA failed ***

    13 OT DIIS     0.15E+00    2.8     0.00602712     -1860.0756704107 -2.07E+00

 *** WARNING in fm/cp_fm_elpa.F:522 :: Setting real_kernel for ELPA failed ***

    14 OT DIIS     0.15E+00    2.8     0.00540009     -1861.2214153833 -1.15E+00

 *** WARNING in fm/cp_fm_elpa.F:522 :: Setting real_kernel for ELPA failed ***

    15 OT DIIS     0.15E+00    2.9     0.00381181     -1862.7686312175 -1.55E+00

 *** WARNING in fm/cp_fm_elpa.F:522 :: Setting real_kernel for ELPA failed ***

    16 OT DIIS     0.15E+00    2.9     0.00398934     -1863.9015233677 -1.13E+00

 *** WARNING in fm/cp_fm_elpa.F:522 :: Setting real_kernel for ELPA failed ***

    17 OT DIIS     0.15E+00    2.9     0.00318434     -1865.1955176717 -1.29E+00

 *** WARNING in fm/cp_fm_elpa.F:522 :: Setting real_kernel for ELPA failed ***

    18 OT DIIS     0.15E+00    3.0     0.00371039     -1865.9204676555 -7.25E-01

 *** WARNING in fm/cp_fm_elpa.F:522 :: Setting real_kernel for ELPA failed ***

    19 OT DIIS     0.15E+00    3.1     0.00306179     -1866.6899442803 -7.69E-01

 *** WARNING in fm/cp_fm_elpa.F:522 :: Setting real_kernel for ELPA failed ***

    20 OT DIIS     0.15E+00    2.9     0.00330880     -1867.3053391366 -6.15E-01

 *** WARNING in fm/cp_fm_elpa.F:522 :: Setting real_kernel for ELPA failed ***

    21 OT DIIS     0.15E+00    2.9     0.00310633     -1867.8136626240 -5.08E-01

 *** WARNING in fm/cp_fm_elpa.F:522 :: Setting real_kernel for ELPA failed ***

    22 OT DIIS     0.15E+00    2.9     0.00267621     -1868.4625562567 -6.49E-01

 *** WARNING in fm/cp_fm_elpa.F:522 :: Setting real_kernel for ELPA failed ***

    23 OT DIIS     0.15E+00    2.9     0.00306120     -1868.5456773446 -8.31E-02

 *** WARNING in fm/cp_fm_elpa.F:522 :: Setting real_kernel for ELPA failed ***

    24 OT DIIS     0.15E+00    2.8     0.00253322     -1869.2641284038 -7.18E-01

 *** WARNING in fm/cp_fm_elpa.F:522 :: Setting real_kernel for ELPA failed ***

    25 OT DIIS     0.15E+00    2.9     0.00244267     -1869.1935457066  7.06E-02

 *** WARNING in fm/cp_fm_elpa.F:522 :: Setting real_kernel for ELPA failed ***

    26 OT DIIS     0.15E+00    2.8     0.00243016     -1869.7526978666 -5.59E-01

 *** WARNING in fm/cp_fm_elpa.F:522 :: Setting real_kernel for ELPA failed ***

    27 OT DIIS     0.15E+00    2.8     0.00225150     -1869.7804697732 -2.78E-02

 *** WARNING in fm/cp_fm_elpa.F:522 :: Setting real_kernel for ELPA failed ***

    28 OT DIIS     0.15E+00    2.9     0.00216991     -1870.0483568699 -2.68E-01

 *** WARNING in fm/cp_fm_elpa.F:522 :: Setting real_kernel for ELPA failed ***

    29 OT DIIS     0.15E+00    2.8     0.00201523     -1870.2621445862 -2.14E-01

 *** WARNING in fm/cp_fm_elpa.F:522 :: Setting real_kernel for ELPA failed ***

    30 OT DIIS     0.15E+00    2.8     0.00176548     -1870.4116117868 -1.49E-01

  Leaving inner SCF loop after reaching    30 steps.


  Electronic density on regular grids:       -887.9991564830        0.0008435170
  Core density on regular grids:              887.9999999569       -0.0000000431
  Total charge density on r-space grids:        0.0008434738
  Total charge density g-space grids:           0.0008434738

  Overlap energy of the core charge distribution:              42.73911777915239
  Self energy of the core charge distribution:              -5102.84296118906968
  Core Hamiltonian energy:                                   1639.21701061725616
  Hartree energy:                                            2042.28355353737379
  Exchange-correlation energy:                               -491.80833253152201

  Total energy:                                             -1870.41161178680932

  outer SCF iter =    1 RMS gradient =   0.18E-02 energy =      -1870.4116117868

  ----------------------------------- OT ---------------------------------------
  Minimizer      : DIIS                : direct inversion
                                         in the iterative subspace
                                         using   7 DIIS vectors
                                         safer DIIS on
  Preconditioner : FULL_ALL            : diagonalization, state selective
  Precond_solver : DEFAULT
  stepsize       :    0.15000000                  energy_gap     :    0.00100000
  eps_taylor     :   0.10000E-15                  max_taylor     :             4
  ----------------------------------- OT ---------------------------------------

  Step     Update method      Time    Convergence         Total energy    Change
  ------------------------------------------------------------------------------

 *** WARNING in fm/cp_fm_elpa.F:522 :: Setting real_kernel for ELPA failed ***


 *** WARNING in fm/cp_fm_elpa.F:522 :: Setting real_kernel for ELPA failed ***


 *** WARNING in fm/cp_fm_elpa.F:522 :: Setting real_kernel for ELPA failed ***


 *** WARNING in fm/cp_fm_elpa.F:522 :: Setting real_kernel for ELPA failed ***

     1 OT DIIS     0.15E+00   10.8     0.00946810     -1870.7320459308 -3.20E-01

 *** WARNING in fm/cp_fm_elpa.F:522 :: Setting real_kernel for ELPA failed ***

     2 OT DIIS     0.15E+00    2.9     0.03160386     -1889.6823776902 -1.90E+01

 *** WARNING in fm/cp_fm_elpa.F:522 :: Setting real_kernel for ELPA failed ***

     3 OT DIIS     0.15E+00    2.9     0.03458651     -1890.1932968954 -5.11E-01

 *** WARNING in fm/cp_fm_elpa.F:522 :: Setting real_kernel for ELPA failed ***

     4 OT DIIS     0.15E+00    2.8     0.04743651     -1884.9795561365  5.21E+00

 *** WARNING in fm/cp_fm_elpa.F:522 :: Setting real_kernel for ELPA failed ***

     5 OT DIIS     0.15E+00    2.8     0.03004786     -1893.7707902363 -8.79E+00

 *** WARNING in fm/cp_fm_elpa.F:522 :: Setting real_kernel for ELPA failed ***

     6 OT DIIS     0.15E+00    2.8     0.04049011     -1887.6834010605  6.09E+00

 *** WARNING in fm/cp_fm_elpa.F:522 :: Setting real_kernel for ELPA failed ***

     7 OT DIIS     0.15E+00    2.9     0.01735229     -1897.3806597046 -9.70E+00

 *** WARNING in fm/cp_fm_elpa.F:522 :: Setting real_kernel for ELPA failed ***

     8 OT DIIS     0.15E+00    2.9     0.02502099     -1896.5232846423  8.57E-01

 *** WARNING in fm/cp_fm_elpa.F:522 :: Setting real_kernel for ELPA failed ***

     9 OT DIIS     0.15E+00    2.8     0.05137658     -1888.2379092686  8.29E+00

 *** WARNING in fm/cp_fm_elpa.F:522 :: Setting real_kernel for ELPA failed ***

    10 OT DIIS     0.15E+00    2.9     0.04171484     -1893.6019272524 -5.36E+00

 *** WARNING in fm/cp_fm_elpa.F:522 :: Setting real_kernel for ELPA failed ***

    11 OT DIIS     0.15E+00    2.9     0.02375374     -1897.9672211007 -4.37E+00

 *** WARNING in fm/cp_fm_elpa.F:522 :: Setting real_kernel for ELPA failed ***

    12 OT DIIS     0.15E+00    2.9     0.04982732     -1891.7409294579  6.23E+00

 *** WARNING in fm/cp_fm_elpa.F:522 :: Setting real_kernel for ELPA failed ***

    13 OT DIIS     0.15E+00    2.9     0.03560364     -1891.8557670074 -1.15E-01

 *** WARNING in fm/cp_fm_elpa.F:522 :: Setting real_kernel for ELPA failed ***

    14 OT DIIS     0.15E+00    2.9     0.01575623     -1898.8104868623 -6.95E+00

 *** WARNING in fm/cp_fm_elpa.F:522 :: Setting real_kernel for ELPA failed ***

    15 OT DIIS     0.15E+00    2.8     0.04024902     -1885.7550963147  1.31E+01

 *** WARNING in fm/cp_fm_elpa.F:522 :: Setting real_kernel for ELPA failed ***

    16 OT DIIS     0.15E+00    2.8     0.01326967     -1899.4264191453 -1.37E+01

 *** WARNING in fm/cp_fm_elpa.F:522 :: Setting real_kernel for ELPA failed ***

    17 OT DIIS     0.15E+00    2.9     0.02989011     -1897.5356941999  1.89E+00

 *** WARNING in fm/cp_fm_elpa.F:522 :: Setting real_kernel for ELPA failed ***

    18 OT DIIS     0.15E+00    2.9     0.01856110     -1899.1751391535 -1.64E+00

 *** WARNING in fm/cp_fm_elpa.F:522 :: Setting real_kernel for ELPA failed ***

    19 OT DIIS     0.15E+00    2.8     0.03190920     -1891.4721864270  7.70E+00

 *** WARNING in fm/cp_fm_elpa.F:522 :: Setting real_kernel for ELPA failed ***

    20 OT DIIS     0.15E+00    2.7     0.02146386     -1896.8189069421 -5.35E+00

 *** WARNING in fm/cp_fm_elpa.F:522 :: Setting real_kernel for ELPA failed ***

    21 OT DIIS     0.15E+00    2.8     0.03300149     -1895.2321049287  1.59E+00

 *** WARNING in fm/cp_fm_elpa.F:522 :: Setting real_kernel for ELPA failed ***

    22 OT DIIS     0.15E+00    2.8     0.04574382     -1894.5771393643  6.55E-01

 *** WARNING in fm/cp_fm_elpa.F:522 :: Setting real_kernel for ELPA failed ***

    23 OT DIIS     0.15E+00    2.8     0.03301745     -1888.8737373284  5.70E+00

 *** WARNING in fm/cp_fm_elpa.F:522 :: Setting real_kernel for ELPA failed ***

    24 OT SD       0.15E+00    2.8     0.02193480     -1882.9972545062  5.88E+00

 *** WARNING in fm/cp_fm_elpa.F:522 :: Setting real_kernel for ELPA failed ***

    25 OT SD       0.15E+00    2.9     0.04248092     -1888.6869737204 -5.69E+00

 *** WARNING in fm/cp_fm_elpa.F:522 :: Setting real_kernel for ELPA failed ***

    26 OT SD       0.15E+00    2.8     0.05001352     -1876.3734799548  1.23E+01

 *** WARNING in fm/cp_fm_elpa.F:522 :: Setting real_kernel for ELPA failed ***

    27 OT SD       0.15E+00    2.8     0.01768935     -1875.0191188982  1.35E+00

 *** WARNING in fm/cp_fm_elpa.F:522 :: Setting real_kernel for ELPA failed ***

    28 OT SD       0.15E+00    2.9     0.05458864     -1869.2964107667  5.72E+00

 *** WARNING in fm/cp_fm_elpa.F:522 :: Setting real_kernel for ELPA failed ***

    29 OT DIIS     0.15E+00    3.0     0.08181740     -1845.4882322822  2.38E+01

 *** WARNING in fm/cp_fm_elpa.F:522 :: Setting real_kernel for ELPA failed ***

    30 OT SD       0.15E+00    2.8     0.02407790     -1874.0317994067 -2.85E+01

  Leaving inner SCF loop after reaching    30 steps.


  Electronic density on regular grids:       -888.0024352558       -0.0024352558
  Core density on regular grids:              887.9999999569       -0.0000000431
  Total charge density on r-space grids:       -0.0024352990
  Total charge density g-space grids:          -0.0024352990

  Overlap energy of the core charge distribution:              42.73911777915239
  Self energy of the core charge distribution:              -5102.84296118906968
  Core Hamiltonian energy:                                   1626.86088836193085
  Hartree energy:                                            2050.07372824708591
  Exchange-correlation energy:                               -490.86257260581300

  Total energy:                                             -1874.03179940671362

  outer SCF iter =    2 RMS gradient =   0.24E-01 energy =      -1874.0317994067

  ----------------------------------- OT ---------------------------------------
  Minimizer      : DIIS                : direct inversion
                                         in the iterative subspace
                                         using   7 DIIS vectors
                                         safer DIIS on
  Preconditioner : FULL_ALL            : diagonalization, state selective
  Precond_solver : DEFAULT
  stepsize       :    0.15000000                  energy_gap     :    0.00100000
  eps_taylor     :   0.10000E-15                  max_taylor     :             4
  ----------------------------------- OT ---------------------------------------

  Step     Update method      Time    Convergence         Total energy    Change
  ------------------------------------------------------------------------------

 *** WARNING in fm/cp_fm_elpa.F:522 :: Setting real_kernel for ELPA failed ***


 *** WARNING in fm/cp_fm_elpa.F:522 :: Setting real_kernel for ELPA failed ***


 *** WARNING in fm/cp_fm_elpa.F:522 :: Setting real_kernel for ELPA failed ***


 *** WARNING in fm/cp_fm_elpa.F:522 :: Setting real_kernel for ELPA failed ***

     1 OT DIIS     0.15E+00   10.8     0.01483977     -1881.9170617104 -7.89E+00

 *** WARNING in fm/cp_fm_elpa.F:522 :: Setting real_kernel for ELPA failed ***

     2 OT DIIS     0.15E+00    2.8     0.01836421     -1874.0895938439  7.83E+00

 *** WARNING in fm/cp_fm_elpa.F:522 :: Setting real_kernel for ELPA failed ***

     3 OT DIIS     0.15E+00    2.8     0.00997773     -1892.1285446207 -1.80E+01

 *** WARNING in fm/cp_fm_elpa.F:522 :: Setting real_kernel for ELPA failed ***

     4 OT DIIS     0.15E+00    2.8     0.00248145     -1895.6437301219 -3.52E+00

 *** WARNING in fm/cp_fm_elpa.F:522 :: Setting real_kernel for ELPA failed ***

     5 OT DIIS     0.15E+00    2.8     0.00206016     -1896.6810313899 -1.04E+00

 *** WARNING in fm/cp_fm_elpa.F:522 :: Setting real_kernel for ELPA failed ***

     6 OT DIIS     0.15E+00    2.8     0.00163732     -1897.4442039090 -7.63E-01

 *** WARNING in fm/cp_fm_elpa.F:522 :: Setting real_kernel for ELPA failed ***

     7 OT DIIS     0.15E+00    2.8     0.00133401     -1898.1328018669 -6.89E-01

 *** WARNING in fm/cp_fm_elpa.F:522 :: Setting real_kernel for ELPA failed ***

     8 OT DIIS     0.15E+00    2.8     0.00108469     -1898.9392282843 -8.06E-01

 *** WARNING in fm/cp_fm_elpa.F:522 :: Setting real_kernel for ELPA failed ***

     9 OT DIIS     0.15E+00    2.8     0.00087443     -1899.5985982352 -6.59E-01

 *** WARNING in fm/cp_fm_elpa.F:522 :: Setting real_kernel for ELPA failed ***

    10 OT DIIS     0.15E+00    2.8     0.00072416     -1900.0494718077 -4.51E-01

 *** WARNING in fm/cp_fm_elpa.F:522 :: Setting real_kernel for ELPA failed ***

    11 OT DIIS     0.15E+00    2.8     0.00062929     -1900.3464099324 -2.97E-01

 *** WARNING in fm/cp_fm_elpa.F:522 :: Setting real_kernel for ELPA failed ***

    12 OT DIIS     0.15E+00    2.9     0.00052527     -1900.6087255744 -2.62E-01

 *** WARNING in fm/cp_fm_elpa.F:522 :: Setting real_kernel for ELPA failed ***

    13 OT DIIS     0.15E+00    2.9     0.00045074     -1900.8261657335 -2.17E-01

 *** WARNING in fm/cp_fm_elpa.F:522 :: Setting real_kernel for ELPA failed ***

    14 OT DIIS     0.15E+00    2.8     0.00038356     -1901.0331634973 -2.07E-01

 *** WARNING in fm/cp_fm_elpa.F:522 :: Setting real_kernel for ELPA failed ***

    15 OT DIIS     0.15E+00    2.8     0.00033734     -1901.1904863890 -1.57E-01

 *** WARNING in fm/cp_fm_elpa.F:522 :: Setting real_kernel for ELPA failed ***

    16 OT DIIS     0.15E+00    2.8     0.00028950     -1901.3162054659 -1.26E-01

 *** WARNING in fm/cp_fm_elpa.F:522 :: Setting real_kernel for ELPA failed ***

    17 OT DIIS     0.15E+00    2.9     0.00025827     -1901.4583422654 -1.42E-01

 *** WARNING in fm/cp_fm_elpa.F:522 :: Setting real_kernel for ELPA failed ***

    18 OT DIIS     0.15E+00    2.8     0.00023166     -1901.5740295272 -1.16E-01

 *** WARNING in fm/cp_fm_elpa.F:522 :: Setting real_kernel for ELPA failed ***

    19 OT DIIS     0.15E+00    2.9     0.00020884     -1901.7214772284 -1.47E-01

 *** WARNING in fm/cp_fm_elpa.F:522 :: Setting real_kernel for ELPA failed ***

    20 OT DIIS     0.15E+00    2.8     0.00019056     -1901.8387433270 -1.17E-01

 *** WARNING in fm/cp_fm_elpa.F:522 :: Setting real_kernel for ELPA failed ***

    21 OT DIIS     0.15E+00    2.8     0.00017699     -1901.9996241737 -1.61E-01

 *** WARNING in fm/cp_fm_elpa.F:522 :: Setting real_kernel for ELPA failed ***

    22 OT DIIS     0.15E+00    2.9     0.00016277     -1902.1181057563 -1.18E-01

 *** WARNING in fm/cp_fm_elpa.F:522 :: Setting real_kernel for ELPA failed ***

    23 OT DIIS     0.15E+00    3.0     0.00015630     -1902.2192367276 -1.01E-01

 *** WARNING in fm/cp_fm_elpa.F:522 :: Setting real_kernel for ELPA failed ***

    24 OT DIIS     0.15E+00    2.9     0.00014396     -1902.3718576560 -1.53E-01

 *** WARNING in fm/cp_fm_elpa.F:522 :: Setting real_kernel for ELPA failed ***

    25 OT DIIS     0.15E+00    2.9     0.00013598     -1902.4959036864 -1.24E-01

 *** WARNING in fm/cp_fm_elpa.F:522 :: Setting real_kernel for ELPA failed ***

    26 OT DIIS     0.15E+00    2.8     0.00012972     -1902.6925421353 -1.97E-01

 *** WARNING in fm/cp_fm_elpa.F:522 :: Setting real_kernel for ELPA failed ***

    27 OT DIIS     0.15E+00    2.8     0.00012084     -1902.8512557227 -1.59E-01

 *** WARNING in fm/cp_fm_elpa.F:522 :: Setting real_kernel for ELPA failed ***

    28 OT DIIS     0.15E+00    2.8     0.00011633     -1903.0945023671 -2.43E-01

 *** WARNING in fm/cp_fm_elpa.F:522 :: Setting real_kernel for ELPA failed ***

    29 OT DIIS     0.15E+00    2.8     0.00010797     -1903.2842280664 -1.90E-01

 *** WARNING in fm/cp_fm_elpa.F:522 :: Setting real_kernel for ELPA failed ***

    30 OT DIIS     0.15E+00    2.8     0.00010390     -1903.4714464985 -1.87E-01

  Leaving inner SCF loop after reaching    30 steps.


  Electronic density on regular grids:       -888.0157971467       -0.0157971467
  Core density on regular grids:              887.9999999569       -0.0000000431
  Total charge density on r-space grids:       -0.0157971898
  Total charge density g-space grids:          -0.0157971898

  Overlap energy of the core charge distribution:              42.73911777915239
  Self energy of the core charge distribution:              -5102.84296118906968
  Core Hamiltonian energy:                                   1600.56579709053040
  Hartree energy:                                            2048.21667770718796
  Exchange-correlation energy:                               -492.15007788634347

  Total energy:                                             -1903.47144649854249

  outer SCF iter =    3 RMS gradient =   0.10E-03 energy =      -1903.4714464985

  ----------------------------------- OT ---------------------------------------
  Minimizer      : DIIS                : direct inversion
                                         in the iterative subspace
                                         using   7 DIIS vectors
                                         safer DIIS on
  Preconditioner : FULL_ALL            : diagonalization, state selective
  Precond_solver : DEFAULT
  stepsize       :    0.15000000                  energy_gap     :    0.00100000
  eps_taylor     :   0.10000E-15                  max_taylor     :             4
  ----------------------------------- OT ---------------------------------------

  Step     Update method      Time    Convergence         Total energy    Change
  ------------------------------------------------------------------------------

 *** WARNING in fm/cp_fm_elpa.F:522 :: Setting real_kernel for ELPA failed ***


 *** WARNING in fm/cp_fm_elpa.F:522 :: Setting real_kernel for ELPA failed ***


 *** WARNING in fm/cp_fm_elpa.F:522 :: Setting real_kernel for ELPA failed ***


 *** WARNING in fm/cp_fm_elpa.F:522 :: Setting real_kernel for ELPA failed ***

     1 OT DIIS     0.15E+00   13.5     0.00143184     -1903.6352426153 -1.64E-01

 *** WARNING in fm/cp_fm_elpa.F:522 :: Setting real_kernel for ELPA failed ***

     2 OT DIIS     0.15E+00    2.9     0.00115627     -1897.6812222152  5.95E+00

 *** WARNING in fm/cp_fm_elpa.F:522 :: Setting real_kernel for ELPA failed ***

     3 OT DIIS     0.15E+00    2.8     0.00054095     -1890.0276070162  7.65E+00

 *** WARNING in fm/cp_fm_elpa.F:522 :: Setting real_kernel for ELPA failed ***

     4 OT DIIS     0.15E+00    2.8     0.00033115     -1889.6605737230  3.67E-01

 *** WARNING in fm/cp_fm_elpa.F:522 :: Setting real_kernel for ELPA failed ***

     5 OT DIIS     0.15E+00    2.9     0.00027906     -1889.7689319744 -1.08E-01

 *** WARNING in fm/cp_fm_elpa.F:522 :: Setting real_kernel for ELPA failed ***

     6 OT DIIS     0.15E+00    2.9     0.00026154     -1889.5849594811  1.84E-01

 *** WARNING in fm/cp_fm_elpa.F:522 :: Setting real_kernel for ELPA failed ***

     7 OT DIIS     0.15E+00    2.9     0.00026075     -1888.9927302229  5.92E-01

 *** WARNING in fm/cp_fm_elpa.F:522 :: Setting real_kernel for ELPA failed ***

     8 OT DIIS     0.15E+00    2.9     0.00025807     -1888.5754243969  4.17E-01

 *** WARNING in fm/cp_fm_elpa.F:522 :: Setting real_kernel for ELPA failed ***

     9 OT SD       0.15E+00    2.9     0.00026172     -1888.0705827295  5.05E-01

 *** WARNING in fm/cp_fm_elpa.F:522 :: Setting real_kernel for ELPA failed ***

    10 OT SD       0.15E+00    2.8     0.00026754     -1887.7852563047  2.85E-01

 *** WARNING in fm/cp_fm_elpa.F:522 :: Setting real_kernel for ELPA failed ***

    11 OT SD       0.15E+00    2.8     0.00027482     -1887.4994560953  2.86E-01

 *** WARNING in fm/cp_fm_elpa.F:522 :: Setting real_kernel for ELPA failed ***

    12 OT SD       0.15E+00    2.8     0.00028325     -1887.2141966906  2.85E-01

 *** WARNING in fm/cp_fm_elpa.F:522 :: Setting real_kernel for ELPA failed ***

    13 OT SD       0.15E+00    2.8     0.00029281     -1886.9305770317  2.84E-01

 *** WARNING in fm/cp_fm_elpa.F:522 :: Setting real_kernel for ELPA failed ***

    14 OT SD       0.15E+00    2.8     0.00030356     -1886.6495519042  2.81E-01

 *** WARNING in fm/cp_fm_elpa.F:522 :: Setting real_kernel for ELPA failed ***

    15 OT SD       0.15E+00    2.8     0.00031556     -1886.3718904578  2.78E-01

 *** WARNING in fm/cp_fm_elpa.F:522 :: Setting real_kernel for ELPA failed ***

    16 OT SD       0.15E+00    2.9     0.00032894     -1886.0982338744  2.74E-01

 *** WARNING in fm/cp_fm_elpa.F:522 :: Setting real_kernel for ELPA failed ***

    17 OT SD       0.15E+00    2.9     0.00034382     -1885.8289174280  2.69E-01

 *** WARNING in fm/cp_fm_elpa.F:522 :: Setting real_kernel for ELPA failed ***

    18 OT SD       0.15E+00    2.8     0.00036038     -1885.5640703491  2.65E-01

 *** WARNING in fm/cp_fm_elpa.F:522 :: Setting real_kernel for ELPA failed ***

    19 OT SD       0.15E+00    2.8     0.00037882     -1885.3036354318  2.60E-01

 *** WARNING in fm/cp_fm_elpa.F:522 :: Setting real_kernel for ELPA failed ***

    20 OT SD       0.15E+00    2.8     0.00039938     -1885.0472799877  2.56E-01

 *** WARNING in fm/cp_fm_elpa.F:522 :: Setting real_kernel for ELPA failed ***

    21 OT SD       0.15E+00    2.9     0.00042236     -1884.7945447861  2.53E-01

 *** WARNING in fm/cp_fm_elpa.F:522 :: Setting real_kernel for ELPA failed ***

    22 OT SD       0.15E+00    2.8     0.00044811     -1884.5447061193  2.50E-01

 *** WARNING in fm/cp_fm_elpa.F:522 :: Setting real_kernel for ELPA failed ***

    23 OT SD       0.15E+00    2.8     0.00047708     -1884.2969541764  2.48E-01

 *** WARNING in fm/cp_fm_elpa.F:522 :: Setting real_kernel for ELPA failed ***

    24 OT SD       0.15E+00    2.8     0.00050982     -1884.0502645168  2.47E-01

 *** WARNING in fm/cp_fm_elpa.F:522 :: Setting real_kernel for ELPA failed ***

    25 OT SD       0.15E+00    2.8     0.00054701     -1883.8034514492  2.47E-01

 *** WARNING in fm/cp_fm_elpa.F:522 :: Setting real_kernel for ELPA failed ***

    26 OT SD       0.15E+00    2.9     0.00058955     -1883.5552402581  2.48E-01

 *** WARNING in fm/cp_fm_elpa.F:522 :: Setting real_kernel for ELPA failed ***

    27 OT SD       0.15E+00    2.9     0.00063858     -1883.3042132998  2.51E-01

 *** WARNING in fm/cp_fm_elpa.F:522 :: Setting real_kernel for ELPA failed ***

    28 OT SD       0.15E+00    3.0     0.00069563     -1883.0489543742  2.55E-01

 *** WARNING in fm/cp_fm_elpa.F:522 :: Setting real_kernel for ELPA failed ***

    29 OT SD       0.15E+00    2.9     0.00076274     -1882.7880603922  2.61E-01

 *** WARNING in fm/cp_fm_elpa.F:522 :: Setting real_kernel for ELPA failed ***

    30 OT SD       0.15E+00    2.9     0.00084269     -1882.5204167695  2.68E-01

  Leaving inner SCF loop after reaching    30 steps.


  Electronic density on regular grids:       -886.0106041580        1.9893958420
  Core density on regular grids:              887.9999999569       -0.0000000431
  Total charge density on r-space grids:        1.9893957989
  Total charge density g-space grids:           1.9893957989

  Overlap energy of the core charge distribution:              42.73911777915239
  Self energy of the core charge distribution:              -5102.84296118906968
  Core Hamiltonian energy:                                   1621.88349628448486
  Hartree energy:                                            2047.54584556875693
  Exchange-correlation energy:                               -491.84591521282493

  Total energy:                                             -1882.52041676950057

  outer SCF iter =    4 RMS gradient =   0.84E-03 energy =      -1882.5204167695

  ----------------------------------- OT ---------------------------------------
  Minimizer      : DIIS                : direct inversion
                                         in the iterative subspace
                                         using   7 DIIS vectors
                                         safer DIIS on
  Preconditioner : FULL_ALL            : diagonalization, state selective
  Precond_solver : DEFAULT
  stepsize       :    0.15000000                  energy_gap     :    0.00100000
  eps_taylor     :   0.10000E-15                  max_taylor     :             4
  ----------------------------------- OT ---------------------------------------

  Step     Update method      Time    Convergence         Total energy    Change
  ------------------------------------------------------------------------------

 *** WARNING in fm/cp_fm_elpa.F:522 :: Setting real_kernel for ELPA failed ***


 *** WARNING in fm/cp_fm_elpa.F:522 :: Setting real_kernel for ELPA failed ***


 *** WARNING in fm/cp_fm_elpa.F:522 :: Setting real_kernel for ELPA failed ***

     1 OT DIIS     0.15E+00   10.9     0.00259734     -1882.2454887788  2.75E-01

 *** WARNING in fm/cp_fm_elpa.F:522 :: Setting real_kernel for ELPA failed ***

     2 OT DIIS     0.15E+00    2.8     0.00213476     -1883.6227592788 -1.38E+00

 *** WARNING in fm/cp_fm_elpa.F:522 :: Setting real_kernel for ELPA failed ***

     3 OT DIIS     0.15E+00    2.8     0.00141499     -1881.6774739712  1.95E+00

 *** WARNING in fm/cp_fm_elpa.F:522 :: Setting real_kernel for ELPA failed ***

     4 OT SD       0.15E+00    2.8     0.00190210     -1878.4551500118  3.22E+00

 *** WARNING in fm/cp_fm_elpa.F:522 :: Setting real_kernel for ELPA failed ***

     5 OT SD       0.15E+00    2.8     0.00226836     -1876.6013735733  1.85E+00

 *** WARNING in fm/cp_fm_elpa.F:522 :: Setting real_kernel for ELPA failed ***

     6 OT SD       0.15E+00    2.8     0.00249450     -1875.2185793929  1.38E+00

 *** WARNING in fm/cp_fm_elpa.F:522 :: Setting real_kernel for ELPA failed ***

     7 OT DIIS     0.15E+00    2.8     0.00232615     -1874.2558950027  9.63E-01

 *** WARNING in fm/cp_fm_elpa.F:522 :: Setting real_kernel for ELPA failed ***

     8 OT DIIS     0.15E+00    2.8     0.00266166     -1873.9643875077  2.92E-01

 *** WARNING in fm/cp_fm_elpa.F:522 :: Setting real_kernel for ELPA failed ***

     9 OT DIIS     0.15E+00    2.8     0.00251754     -1874.2015058659 -2.37E-01

 *** WARNING in fm/cp_fm_elpa.F:522 :: Setting real_kernel for ELPA failed ***

    10 OT SD       0.15E+00    2.8     0.00132902     -1872.5124365084  1.69E+00

 *** WARNING in fm/cp_fm_elpa.F:522 :: Setting real_kernel for ELPA failed ***

    11 OT SD       0.15E+00    2.8     0.00094004     -1871.7251833278  7.87E-01

 *** WARNING in fm/cp_fm_elpa.F:522 :: Setting real_kernel for ELPA failed ***

    12 OT SD       0.15E+00    2.8     0.00078838     -1871.0780668081  6.47E-01

 *** WARNING in fm/cp_fm_elpa.F:522 :: Setting real_kernel for ELPA failed ***

    13 OT SD       0.15E+00    2.8     0.00074267     -1870.6047881757  4.73E-01

 *** WARNING in fm/cp_fm_elpa.F:522 :: Setting real_kernel for ELPA failed ***

    14 OT SD       0.15E+00    2.9     0.00074044     -1870.2780878708  3.27E-01

 *** WARNING in fm/cp_fm_elpa.F:522 :: Setting real_kernel for ELPA failed ***

    15 OT SD       0.15E+00    2.8     0.00075858     -1870.0654452243  2.13E-01

 *** WARNING in fm/cp_fm_elpa.F:522 :: Setting real_kernel for ELPA failed ***

    16 OT SD       0.15E+00    2.8     0.00078875     -1869.9415326228  1.24E-01

 *** WARNING in fm/cp_fm_elpa.F:522 :: Setting real_kernel for ELPA failed ***

    17 OT SD       0.15E+00    2.8     0.00082769     -1869.8890636545  5.25E-02

 *** WARNING in fm/cp_fm_elpa.F:522 :: Setting real_kernel for ELPA failed ***

    18 OT SD       0.15E+00    2.8     0.00087420     -1869.8974337274 -8.37E-03

 *** WARNING in fm/cp_fm_elpa.F:522 :: Setting real_kernel for ELPA failed ***

    19 OT SD       0.15E+00    2.8     0.00092802     -1869.9614362621 -6.40E-02

 *** WARNING in fm/cp_fm_elpa.F:522 :: Setting real_kernel for ELPA failed ***

    20 OT SD       0.15E+00    2.9     0.00098943     -1870.0803633776 -1.19E-01

 *** WARNING in fm/cp_fm_elpa.F:522 :: Setting real_kernel for ELPA failed ***

    21 OT SD       0.15E+00    2.9     0.00105901     -1870.2575426969 -1.77E-01

 *** WARNING in fm/cp_fm_elpa.F:522 :: Setting real_kernel for ELPA failed ***

    22 OT SD       0.15E+00    2.9     0.00113752     -1870.5003016940 -2.43E-01

 *** WARNING in fm/cp_fm_elpa.F:522 :: Setting real_kernel for ELPA failed ***

    23 OT SD       0.15E+00    2.9     0.00122577     -1870.8201103642 -3.20E-01

 *** WARNING in fm/cp_fm_elpa.F:522 :: Setting real_kernel for ELPA failed ***

    24 OT SD       0.15E+00    2.8     0.00132443     -1871.2329940373 -4.13E-01

 *** WARNING in fm/cp_fm_elpa.F:522 :: Setting real_kernel for ELPA failed ***

    25 OT SD       0.15E+00    2.8     0.00143380     -1871.7599024345 -5.27E-01

 *** WARNING in fm/cp_fm_elpa.F:522 :: Setting real_kernel for ELPA failed ***

    26 OT SD       0.15E+00    2.8     0.00155343     -1872.4268598789 -6.67E-01

 *** WARNING in fm/cp_fm_elpa.F:522 :: Setting real_kernel for ELPA failed ***

    27 OT SD       0.15E+00    2.9     0.00168165     -1873.2643529805 -8.37E-01

 *** WARNING in fm/cp_fm_elpa.F:522 :: Setting real_kernel for ELPA failed ***

    28 OT SD       0.15E+00    2.8     0.00181491     -1874.3052226137 -1.04E+00

 *** WARNING in fm/cp_fm_elpa.F:522 :: Setting real_kernel for ELPA failed ***

    29 OT SD       0.15E+00    2.8     0.00194713     -1875.5800139812 -1.27E+00

 *** WARNING in fm/cp_fm_elpa.F:522 :: Setting real_kernel for ELPA failed ***

    30 OT SD       0.15E+00    2.9     0.00206920     -1877.1089089693 -1.53E+00

  Leaving inner SCF loop after reaching    30 steps.


  Electronic density on regular grids:       -884.8761882733        3.1238117267
  Core density on regular grids:              887.9999999569       -0.0000000431
  Total charge density on r-space grids:        3.1238116836
  Total charge density g-space grids:           3.1238116836

  Overlap energy of the core charge distribution:              42.73911777915239
  Self energy of the core charge distribution:              -5102.84296118906968
  Core Hamiltonian energy:                                   1626.52273440361023
  Hartree energy:                                            2047.87219063024827
  Exchange-correlation energy:                               -491.39999059326294

  Total energy:                                             -1877.10890896932187

  outer SCF iter =    5 RMS gradient =   0.21E-02 energy =      -1877.1089089693

  ----------------------------------- OT ---------------------------------------
  Minimizer      : DIIS                : direct inversion
                                         in the iterative subspace
                                         using   7 DIIS vectors
                                         safer DIIS on
  Preconditioner : FULL_ALL            : diagonalization, state selective
  Precond_solver : DEFAULT
  stepsize       :    0.15000000                  energy_gap     :    0.00100000
  eps_taylor     :   0.10000E-15                  max_taylor     :             4
  ----------------------------------- OT ---------------------------------------

  Step     Update method      Time    Convergence         Total energy    Change
  ------------------------------------------------------------------------------

 *** WARNING in fm/cp_fm_elpa.F:522 :: Setting real_kernel for ELPA failed ***


 *** WARNING in fm/cp_fm_elpa.F:522 :: Setting real_kernel for ELPA failed ***


 *** WARNING in fm/cp_fm_elpa.F:522 :: Setting real_kernel for ELPA failed ***


 *** WARNING in fm/cp_fm_elpa.F:522 :: Setting real_kernel for ELPA failed ***

     1 OT DIIS     0.15E+00   10.8     0.00339610     -1878.8901405884 -1.78E+00

 *** WARNING in fm/cp_fm_elpa.F:522 :: Setting real_kernel for ELPA failed ***

     2 OT DIIS     0.15E+00    2.8     0.00157605     -1866.0757379583  1.28E+01

 *** WARNING in fm/cp_fm_elpa.F:522 :: Setting real_kernel for ELPA failed ***

     3 OT DIIS     0.15E+00    2.8     0.00099287     -1863.6815916278  2.39E+00

 *** WARNING in fm/cp_fm_elpa.F:522 :: Setting real_kernel for ELPA failed ***

     4 OT DIIS     0.15E+00    2.8     0.00093955     -1862.3300148992  1.35E+00

 *** WARNING in fm/cp_fm_elpa.F:522 :: Setting real_kernel for ELPA failed ***

     5 OT DIIS     0.15E+00    2.8     0.00077854     -1861.4616868765  8.68E-01

 *** WARNING in fm/cp_fm_elpa.F:522 :: Setting real_kernel for ELPA failed ***

     6 OT DIIS     0.15E+00    2.8     0.00070259     -1860.3977516665  1.06E+00

 *** WARNING in fm/cp_fm_elpa.F:522 :: Setting real_kernel for ELPA failed ***

     7 OT DIIS     0.15E+00    2.8     0.00057102     -1860.0427916556  3.55E-01

 *** WARNING in fm/cp_fm_elpa.F:522 :: Setting real_kernel for ELPA failed ***

     8 OT DIIS     0.15E+00    2.8     0.00051143     -1859.8947995148  1.48E-01

 *** WARNING in fm/cp_fm_elpa.F:522 :: Setting real_kernel for ELPA failed ***

     9 OT DIIS     0.15E+00    2.8     0.00044317     -1859.7244121947  1.70E-01

 *** WARNING in fm/cp_fm_elpa.F:522 :: Setting real_kernel for ELPA failed ***

    10 OT DIIS     0.15E+00    2.9     0.00037228     -1859.8363822080 -1.12E-01

 *** WARNING in fm/cp_fm_elpa.F:522 :: Setting real_kernel for ELPA failed ***

    11 OT DIIS     0.15E+00    2.8     0.00035035     -1860.2070126863 -3.71E-01

 *** WARNING in fm/cp_fm_elpa.F:522 :: Setting real_kernel for ELPA failed ***

    12 OT DIIS     0.15E+00    2.9     0.00034023     -1860.2861264954 -7.91E-02

 *** WARNING in fm/cp_fm_elpa.F:522 :: Setting real_kernel for ELPA failed ***

    13 OT DIIS     0.15E+00    2.9     0.00034576     -1860.3623259721 -7.62E-02

 *** WARNING in fm/cp_fm_elpa.F:522 :: Setting real_kernel for ELPA failed ***

    14 OT SD       0.15E+00    2.8     0.00034485     -1860.3687772874 -6.45E-03

 *** WARNING in fm/cp_fm_elpa.F:522 :: Setting real_kernel for ELPA failed ***

    15 OT SD       0.15E+00    2.8     0.00033755     -1860.3659644915  2.81E-03

 *** WARNING in fm/cp_fm_elpa.F:522 :: Setting real_kernel for ELPA failed ***

    16 OT DIIS     0.15E+00    2.8     0.00033051     -1860.3630849848  2.88E-03

 *** WARNING in fm/cp_fm_elpa.F:522 :: Setting real_kernel for ELPA failed ***

    17 OT DIIS     0.15E+00    2.8     0.00028244     -1859.7277800162  6.35E-01

 *** WARNING in fm/cp_fm_elpa.F:522 :: Setting real_kernel for ELPA failed ***

    18 OT DIIS     0.15E+00    2.8     0.00025642     -1859.7311091887 -3.33E-03

 *** WARNING in fm/cp_fm_elpa.F:522 :: Setting real_kernel for ELPA failed ***

    19 OT DIIS     0.15E+00    2.8     0.00024731     -1859.6263418662  1.05E-01

 *** WARNING in fm/cp_fm_elpa.F:522 :: Setting real_kernel for ELPA failed ***

    20 OT DIIS     0.15E+00    2.8     0.00024042     -1859.6106199837  1.57E-02

 *** WARNING in fm/cp_fm_elpa.F:522 :: Setting real_kernel for ELPA failed ***

    21 OT DIIS     0.15E+00    2.9     0.00023546     -1859.5918446246  1.88E-02

 *** WARNING in fm/cp_fm_elpa.F:522 :: Setting real_kernel for ELPA failed ***

    22 OT DIIS     0.15E+00    2.8     0.00023419     -1859.6101159784 -1.83E-02

 *** WARNING in fm/cp_fm_elpa.F:522 :: Setting real_kernel for ELPA failed ***

    23 OT DIIS     0.15E+00    2.8     0.00022862     -1859.5807797486  2.93E-02

 *** WARNING in fm/cp_fm_elpa.F:522 :: Setting real_kernel for ELPA failed ***

    24 OT SD       0.15E+00    2.8     0.00023753     -1859.6646555516 -8.39E-02

 *** WARNING in fm/cp_fm_elpa.F:522 :: Setting real_kernel for ELPA failed ***

    25 OT SD       0.15E+00    2.8     0.00025376     -1859.7451905161 -8.05E-02

 *** WARNING in fm/cp_fm_elpa.F:522 :: Setting real_kernel for ELPA failed ***

    26 OT SD       0.15E+00    2.8     0.00027437     -1859.8194500931 -7.43E-02

 *** WARNING in fm/cp_fm_elpa.F:522 :: Setting real_kernel for ELPA failed ***

    27 OT SD       0.15E+00    2.8     0.00029814     -1859.8880812570 -6.86E-02

 *** WARNING in fm/cp_fm_elpa.F:522 :: Setting real_kernel for ELPA failed ***

    28 OT SD       0.15E+00    2.9     0.00032604     -1859.9517822484 -6.37E-02

 *** WARNING in fm/cp_fm_elpa.F:522 :: Setting real_kernel for ELPA failed ***

    29 OT SD       0.15E+00    2.8     0.00035812     -1860.0109929613 -5.92E-02

 *** WARNING in fm/cp_fm_elpa.F:522 :: Setting real_kernel for ELPA failed ***

    30 OT SD       0.15E+00    2.9     0.00039581     -1860.0665206528 -5.55E-02

  Leaving inner SCF loop after reaching    30 steps.


  Electronic density on regular grids:       -881.0222283773        6.9777716227
  Core density on regular grids:              887.9999999569       -0.0000000431
  Total charge density on r-space grids:        6.9777715796
  Total charge density g-space grids:           6.9777715796

  Overlap energy of the core charge distribution:              42.73911777915239
  Self energy of the core charge distribution:              -5102.84296118906968
  Core Hamiltonian energy:                                   1636.69467017054558
  Hartree energy:                                            2052.53563243341296
  Exchange-correlation energy:                               -489.19297984680094

  Total energy:                                             -1860.06652065275966

  outer SCF iter =    6 RMS gradient =   0.40E-03 energy =      -1860.0665206528

  ----------------------------------- OT ---------------------------------------
  Minimizer      : DIIS                : direct inversion
                                         in the iterative subspace
                                         using   7 DIIS vectors
                                         safer DIIS on
  Preconditioner : FULL_ALL            : diagonalization, state selective
  Precond_solver : DEFAULT
  stepsize       :    0.15000000                  energy_gap     :    0.00100000
  eps_taylor     :   0.10000E-15                  max_taylor     :             4
  ----------------------------------- OT ---------------------------------------

  Step     Update method      Time    Convergence         Total energy    Change
  ------------------------------------------------------------------------------

 *** WARNING in fm/cp_fm_elpa.F:522 :: Setting real_kernel for ELPA failed ***


 *** WARNING in fm/cp_fm_elpa.F:522 :: Setting real_kernel for ELPA failed ***


 *** WARNING in fm/cp_fm_elpa.F:522 :: Setting real_kernel for ELPA failed ***

     1 OT DIIS     0.15E+00   10.8     0.00101253     -1860.1190186511 -5.25E-02

 *** WARNING in fm/cp_fm_elpa.F:522 :: Setting real_kernel for ELPA failed ***

     2 OT DIIS     0.15E+00    2.8     0.00089649     -1859.1304414046  9.89E-01

 *** WARNING in fm/cp_fm_elpa.F:522 :: Setting real_kernel for ELPA failed ***

     3 OT DIIS     0.15E+00    2.8     0.00079658     -1858.2131064365  9.17E-01

 *** WARNING in fm/cp_fm_elpa.F:522 :: Setting real_kernel for ELPA failed ***

     4 OT DIIS     0.15E+00    2.7     0.00071779     -1856.7280531135  1.49E+00

 *** WARNING in fm/cp_fm_elpa.F:522 :: Setting real_kernel for ELPA failed ***

     5 OT DIIS     0.15E+00    2.8     0.00060773     -1855.6906767643  1.04E+00

 *** WARNING in fm/cp_fm_elpa.F:522 :: Setting real_kernel for ELPA failed ***

     6 OT DIIS     0.15E+00    2.8     0.00055380     -1855.7068802594 -1.62E-02

 *** WARNING in fm/cp_fm_elpa.F:522 :: Setting real_kernel for ELPA failed ***

     7 OT DIIS     0.15E+00    2.8     0.00059770     -1856.0030898499 -2.96E-01

 *** WARNING in fm/cp_fm_elpa.F:522 :: Setting real_kernel for ELPA failed ***

     8 OT DIIS     0.15E+00    2.8     0.00049816     -1856.4309148754 -4.28E-01

 *** WARNING in fm/cp_fm_elpa.F:522 :: Setting real_kernel for ELPA failed ***

     9 OT DIIS     0.15E+00    2.8     0.00042419     -1856.8854800364 -4.55E-01

 *** WARNING in fm/cp_fm_elpa.F:522 :: Setting real_kernel for ELPA failed ***

    10 OT DIIS     0.15E+00    2.8     0.00040255     -1857.5627451794 -6.77E-01

 *** WARNING in fm/cp_fm_elpa.F:522 :: Setting real_kernel for ELPA failed ***

    11 OT DIIS     0.15E+00    2.8     0.00040384     -1858.1051767310 -5.42E-01

 *** WARNING in fm/cp_fm_elpa.F:522 :: Setting real_kernel for ELPA failed ***

    12 OT DIIS     0.15E+00    2.8     0.00038219     -1858.8408235093 -7.36E-01

 *** WARNING in fm/cp_fm_elpa.F:522 :: Setting real_kernel for ELPA failed ***

    13 OT DIIS     0.15E+00    2.8     0.00036216     -1859.2204646056 -3.80E-01

 *** WARNING in fm/cp_fm_elpa.F:522 :: Setting real_kernel for ELPA failed ***

    14 OT DIIS     0.15E+00    2.8     0.00035844     -1859.5149301526 -2.94E-01

 *** WARNING in fm/cp_fm_elpa.F:522 :: Setting real_kernel for ELPA failed ***

    15 OT SD       0.15E+00    2.8     0.00035916     -1859.6377788257 -1.23E-01

 *** WARNING in fm/cp_fm_elpa.F:522 :: Setting real_kernel for ELPA failed ***

    16 OT SD       0.15E+00    3.0     0.00036335     -1859.8109229057 -1.73E-01

 *** WARNING in fm/cp_fm_elpa.F:522 :: Setting real_kernel for ELPA failed ***

    17 OT SD       0.15E+00    2.9     0.00037113     -1859.9841777626 -1.73E-01

 *** WARNING in fm/cp_fm_elpa.F:522 :: Setting real_kernel for ELPA failed ***

    18 OT SD       0.15E+00    3.0     0.00037960     -1860.1568849915 -1.73E-01

 *** WARNING in fm/cp_fm_elpa.F:522 :: Setting real_kernel for ELPA failed ***

    19 OT SD       0.15E+00    3.0     0.00038946     -1860.3285112022 -1.72E-01

 *** WARNING in fm/cp_fm_elpa.F:522 :: Setting real_kernel for ELPA failed ***

    20 OT SD       0.15E+00    2.9     0.00040043     -1860.4987695709 -1.70E-01

 *** WARNING in fm/cp_fm_elpa.F:522 :: Setting real_kernel for ELPA failed ***

    21 OT SD       0.15E+00    2.9     0.00041270     -1860.6675057729 -1.69E-01

 *** WARNING in fm/cp_fm_elpa.F:522 :: Setting real_kernel for ELPA failed ***

    22 OT SD       0.15E+00    2.8     0.00042635     -1860.8346332838 -1.67E-01

 *** WARNING in fm/cp_fm_elpa.F:522 :: Setting real_kernel for ELPA failed ***

    23 OT SD       0.15E+00    2.8     0.00044155     -1861.0001797272 -1.66E-01

 *** WARNING in fm/cp_fm_elpa.F:522 :: Setting real_kernel for ELPA failed ***

    24 OT SD       0.15E+00    2.8     0.00045850     -1861.1642729794 -1.64E-01

 *** WARNING in fm/cp_fm_elpa.F:522 :: Setting real_kernel for ELPA failed ***

    25 OT SD       0.15E+00    2.8     0.00047744     -1861.3271041405 -1.63E-01

 *** WARNING in fm/cp_fm_elpa.F:522 :: Setting real_kernel for ELPA failed ***

    26 OT SD       0.15E+00    2.8     0.00049863     -1861.4889903486 -1.62E-01

 *** WARNING in fm/cp_fm_elpa.F:522 :: Setting real_kernel for ELPA failed ***

    27 OT SD       0.15E+00    2.8     0.00052239     -1861.6503392273 -1.61E-01

 *** WARNING in fm/cp_fm_elpa.F:522 :: Setting real_kernel for ELPA failed ***

    28 OT SD       0.15E+00    2.8     0.00054902     -1861.8117152764 -1.61E-01

 *** WARNING in fm/cp_fm_elpa.F:522 :: Setting real_kernel for ELPA failed ***

    29 OT SD       0.15E+00    2.8     0.00057885     -1861.9737964940 -1.62E-01

 *** WARNING in fm/cp_fm_elpa.F:522 :: Setting real_kernel for ELPA failed ***

    30 OT SD       0.15E+00    2.8     0.00061212     -1862.1374648169 -1.64E-01

  Leaving inner SCF loop after reaching    30 steps.


  Electronic density on regular grids:       -879.5796680185        8.4203319815
  Core density on regular grids:              887.9999999569       -0.0000000431
  Total charge density on r-space grids:        8.4203319384
  Total charge density g-space grids:           8.4203319384

  Overlap energy of the core charge distribution:              42.73911777915239
  Self energy of the core charge distribution:              -5102.84296118906968
  Core Hamiltonian energy:                                   1634.07795369625092
  Hartree energy:                                            2052.19316081807983
  Exchange-correlation energy:                               -488.30473592134183

  Total energy:                                             -1862.13746481692851

  outer SCF iter =    7 RMS gradient =   0.61E-03 energy =      -1862.1374648169

  ----------------------------------- OT ---------------------------------------
  Minimizer      : DIIS                : direct inversion
                                         in the iterative subspace
                                         using   7 DIIS vectors
                                         safer DIIS on
  Preconditioner : FULL_ALL            : diagonalization, state selective
  Precond_solver : DEFAULT
  stepsize       :    0.15000000                  energy_gap     :    0.00100000
  eps_taylor     :   0.10000E-15                  max_taylor     :             4
  ----------------------------------- OT ---------------------------------------

  Step     Update method      Time    Convergence         Total energy    Change
  ------------------------------------------------------------------------------

 *** WARNING in fm/cp_fm_elpa.F:522 :: Setting real_kernel for ELPA failed ***


 *** WARNING in fm/cp_fm_elpa.F:522 :: Setting real_kernel for ELPA failed ***


 *** WARNING in fm/cp_fm_elpa.F:522 :: Setting real_kernel for ELPA failed ***


 *** WARNING in fm/cp_fm_elpa.F:522 :: Setting real_kernel for ELPA failed ***

     1 OT DIIS     0.15E+00   10.6     0.00210863     -1862.3037767710 -1.66E-01

 *** WARNING in fm/cp_fm_elpa.F:522 :: Setting real_kernel for ELPA failed ***

     2 OT DIIS     0.15E+00    2.8     0.00165045     -1861.7014340364  6.02E-01

 *** WARNING in fm/cp_fm_elpa.F:522 :: Setting real_kernel for ELPA failed ***

     3 OT DIIS     0.15E+00    2.8     0.00108982     -1859.6636471149  2.04E+00

 *** WARNING in fm/cp_fm_elpa.F:522 :: Setting real_kernel for ELPA failed ***

     4 OT DIIS     0.15E+00    2.8     0.00105327     -1858.0159203812  1.65E+00

 *** WARNING in fm/cp_fm_elpa.F:522 :: Setting real_kernel for ELPA failed ***

     5 OT DIIS     0.15E+00    2.8     0.00102647     -1857.2590684019  7.57E-01

 *** WARNING in fm/cp_fm_elpa.F:522 :: Setting real_kernel for ELPA failed ***

     6 OT DIIS     0.15E+00    2.8     0.00100691     -1855.1988963716  2.06E+00

 *** WARNING in fm/cp_fm_elpa.F:522 :: Setting real_kernel for ELPA failed ***

     7 OT DIIS     0.15E+00    2.9     0.00100545     -1854.3994642228  7.99E-01

 *** WARNING in fm/cp_fm_elpa.F:522 :: Setting real_kernel for ELPA failed ***

     8 OT SD       0.15E+00    2.8     0.00101136     -1854.1006163640  2.99E-01

 *** WARNING in fm/cp_fm_elpa.F:522 :: Setting real_kernel for ELPA failed ***

     9 OT SD       0.15E+00    2.9     0.00095263     -1853.2282171607  8.72E-01

 *** WARNING in fm/cp_fm_elpa.F:522 :: Setting real_kernel for ELPA failed ***

    10 OT SD       0.15E+00    3.0     0.00093060     -1852.4161977628  8.12E-01

 *** WARNING in fm/cp_fm_elpa.F:522 :: Setting real_kernel for ELPA failed ***

    11 OT SD       0.15E+00    2.9     0.00091922     -1851.6741490685  7.42E-01

 *** WARNING in fm/cp_fm_elpa.F:522 :: Setting real_kernel for ELPA failed ***

    12 OT SD       0.15E+00    2.8     0.00091455     -1851.0057040599  6.68E-01

 *** WARNING in fm/cp_fm_elpa.F:522 :: Setting real_kernel for ELPA failed ***

    13 OT SD       0.15E+00    2.8     0.00091442     -1850.4116896303  5.94E-01

 *** WARNING in fm/cp_fm_elpa.F:522 :: Setting real_kernel for ELPA failed ***

    14 OT DIIS     0.15E+00    2.9     0.00091765     -1849.8912004089  5.20E-01

 *** WARNING in fm/cp_fm_elpa.F:522 :: Setting real_kernel for ELPA failed ***

    15 OT SD       0.15E+00    2.9     0.00100258     -1849.9829120773 -9.17E-02

 *** WARNING in fm/cp_fm_elpa.F:522 :: Setting real_kernel for ELPA failed ***

    16 OT SD       0.15E+00    2.9     0.00097058     -1849.5659674918  4.17E-01

 *** WARNING in fm/cp_fm_elpa.F:522 :: Setting real_kernel for ELPA failed ***

    17 OT SD       0.15E+00    2.9     0.00097156     -1849.2107650523  3.55E-01

 *** WARNING in fm/cp_fm_elpa.F:522 :: Setting real_kernel for ELPA failed ***

    18 OT SD       0.15E+00    2.8     0.00097446     -1848.9179562027  2.93E-01

 *** WARNING in fm/cp_fm_elpa.F:522 :: Setting real_kernel for ELPA failed ***

    19 OT SD       0.15E+00    2.8     0.00097829     -1848.6839640463  2.34E-01

 *** WARNING in fm/cp_fm_elpa.F:522 :: Setting real_kernel for ELPA failed ***

    20 OT SD       0.15E+00    2.9     0.00098190     -1848.5045300960  1.79E-01

 *** WARNING in fm/cp_fm_elpa.F:522 :: Setting real_kernel for ELPA failed ***

    21 OT DIIS     0.15E+00    2.9     0.00098465     -1848.3751015216  1.29E-01

 *** WARNING in fm/cp_fm_elpa.F:522 :: Setting real_kernel for ELPA failed ***

    22 OT SD       0.15E+00    2.8     0.00127811     -1849.4851046198 -1.11E+00

 *** WARNING in fm/cp_fm_elpa.F:522 :: Setting real_kernel for ELPA failed ***

    23 OT SD       0.15E+00    2.8     0.00101958     -1849.5479132865 -6.28E-02

 *** WARNING in fm/cp_fm_elpa.F:522 :: Setting real_kernel for ELPA failed ***

    24 OT SD       0.15E+00    2.8     0.00095986     -1849.5643457473 -1.64E-02

 *** WARNING in fm/cp_fm_elpa.F:522 :: Setting real_kernel for ELPA failed ***

    25 OT SD       0.15E+00    2.8     0.00092014     -1849.5869399731 -2.26E-02

 *** WARNING in fm/cp_fm_elpa.F:522 :: Setting real_kernel for ELPA failed ***

    26 OT SD       0.15E+00    2.8     0.00089194     -1849.6215240451 -3.46E-02

 *** WARNING in fm/cp_fm_elpa.F:522 :: Setting real_kernel for ELPA failed ***

    27 OT DIIS     0.15E+00    2.8     0.00087197     -1849.6700867858 -4.86E-02

 *** WARNING in fm/cp_fm_elpa.F:522 :: Setting real_kernel for ELPA failed ***

    28 OT SD       0.15E+00    2.9     0.00084037     -1849.9710127472 -3.01E-01

 *** WARNING in fm/cp_fm_elpa.F:522 :: Setting real_kernel for ELPA failed ***

    29 OT SD       0.15E+00    2.8     0.00086162     -1850.0974608599 -1.26E-01

 *** WARNING in fm/cp_fm_elpa.F:522 :: Setting real_kernel for ELPA failed ***

    30 OT SD       0.15E+00    2.9     0.00089651     -1850.2426999151 -1.45E-01

  Leaving inner SCF loop after reaching    30 steps.


  Electronic density on regular grids:       -875.0827031089       12.9172968911
  Core density on regular grids:              887.9999999569       -0.0000000431
  Total charge density on r-space grids:       12.9172968480
  Total charge density g-space grids:          12.9172968480

  Overlap energy of the core charge distribution:              42.73911777915239
  Self energy of the core charge distribution:              -5102.84296118906968
  Core Hamiltonian energy:                                   1635.39041161537170
  Hartree energy:                                            2059.84250174294039
  Exchange-correlation energy:                               -485.37176986352307

  Total energy:                                             -1850.24269991512824

  outer SCF iter =    8 RMS gradient =   0.90E-03 energy =      -1850.2426999151

  ----------------------------------- OT ---------------------------------------
  Minimizer      : DIIS                : direct inversion
                                         in the iterative subspace
                                         using   7 DIIS vectors
                                         safer DIIS on
  Preconditioner : FULL_ALL            : diagonalization, state selective
  Precond_solver : DEFAULT
  stepsize       :    0.15000000                  energy_gap     :    0.00100000
  eps_taylor     :   0.10000E-15                  max_taylor     :             4
  ----------------------------------- OT ---------------------------------------

  Step     Update method      Time    Convergence         Total energy    Change
  ------------------------------------------------------------------------------

 *** WARNING in fm/cp_fm_elpa.F:522 :: Setting real_kernel for ELPA failed ***


 *** WARNING in fm/cp_fm_elpa.F:522 :: Setting real_kernel for ELPA failed ***


 *** WARNING in fm/cp_fm_elpa.F:522 :: Setting real_kernel for ELPA failed ***


 *** WARNING in fm/cp_fm_elpa.F:522 :: Setting real_kernel for ELPA failed ***

     1 OT DIIS     0.15E+00   10.9     0.00378556     -1850.4102343861 -1.68E-01

 *** WARNING in fm/cp_fm_elpa.F:522 :: Setting real_kernel for ELPA failed ***

     2 OT DIIS     0.15E+00    2.9     0.00314158     -1851.5731830542 -1.16E+00

 *** WARNING in fm/cp_fm_elpa.F:522 :: Setting real_kernel for ELPA failed ***

     3 OT DIIS     0.15E+00    2.9     0.00277067     -1852.0710911683 -4.98E-01

 *** WARNING in fm/cp_fm_elpa.F:522 :: Setting real_kernel for ELPA failed ***

     4 OT DIIS     0.15E+00    2.8     0.00246297     -1852.0723239864 -1.23E-03

 *** WARNING in fm/cp_fm_elpa.F:522 :: Setting real_kernel for ELPA failed ***

     5 OT DIIS     0.15E+00    2.9     0.00201752     -1851.7032445712  3.69E-01

 *** WARNING in fm/cp_fm_elpa.F:522 :: Setting real_kernel for ELPA failed ***

     6 OT DIIS     0.15E+00    2.9     0.00201944     -1850.9701429507  7.33E-01

 *** WARNING in fm/cp_fm_elpa.F:522 :: Setting real_kernel for ELPA failed ***

     7 OT DIIS     0.15E+00    2.8     0.00184395     -1850.6668149177  3.03E-01

 *** WARNING in fm/cp_fm_elpa.F:522 :: Setting real_kernel for ELPA failed ***

     8 OT DIIS     0.15E+00    2.8     0.00121437     -1849.1090191560  1.56E+00

 *** WARNING in fm/cp_fm_elpa.F:522 :: Setting real_kernel for ELPA failed ***

     9 OT DIIS     0.15E+00    2.8     0.00129527     -1848.4167372447  6.92E-01

 *** WARNING in fm/cp_fm_elpa.F:522 :: Setting real_kernel for ELPA failed ***

    10 OT DIIS     0.15E+00    2.9     0.00111848     -1847.6414119119  7.75E-01

 *** WARNING in fm/cp_fm_elpa.F:522 :: Setting real_kernel for ELPA failed ***

    11 OT DIIS     0.15E+00    2.8     0.00087377     -1847.2231768233  4.18E-01

 *** WARNING in fm/cp_fm_elpa.F:522 :: Setting real_kernel for ELPA failed ***

    12 OT DIIS     0.15E+00    2.9     0.00081644     -1847.1791335949  4.40E-02

 *** WARNING in fm/cp_fm_elpa.F:522 :: Setting real_kernel for ELPA failed ***

    13 OT DIIS     0.15E+00    2.8     0.00074492     -1847.3055072961 -1.26E-01

 *** WARNING in fm/cp_fm_elpa.F:522 :: Setting real_kernel for ELPA failed ***

    14 OT DIIS     0.15E+00    2.9     0.00074481     -1847.4189736081 -1.13E-01

 *** WARNING in fm/cp_fm_elpa.F:522 :: Setting real_kernel for ELPA failed ***

    15 OT SD       0.15E+00    2.9     0.00074751     -1847.4818524356 -6.29E-02

 *** WARNING in fm/cp_fm_elpa.F:522 :: Setting real_kernel for ELPA failed ***

    16 OT SD       0.15E+00    2.9     0.00072567     -1847.5432567041 -6.14E-02

 *** WARNING in fm/cp_fm_elpa.F:522 :: Setting real_kernel for ELPA failed ***

    17 OT SD       0.15E+00    3.1     0.00072767     -1847.6083365192 -6.51E-02

 *** WARNING in fm/cp_fm_elpa.F:522 :: Setting real_kernel for ELPA failed ***

    18 OT SD       0.15E+00    2.9     0.00073600     -1847.6787767116 -7.04E-02

 *** WARNING in fm/cp_fm_elpa.F:522 :: Setting real_kernel for ELPA failed ***

    19 OT SD       0.15E+00    2.9     0.00074992     -1847.7553928114 -7.66E-02

 *** WARNING in fm/cp_fm_elpa.F:522 :: Setting real_kernel for ELPA failed ***

    20 OT SD       0.15E+00    2.9     0.00076964     -1847.8389832880 -8.36E-02

 *** WARNING in fm/cp_fm_elpa.F:522 :: Setting real_kernel for ELPA failed ***

    21 OT SD       0.15E+00    2.9     0.00079574     -1847.9306741332 -9.17E-02

 *** WARNING in fm/cp_fm_elpa.F:522 :: Setting real_kernel for ELPA failed ***

    22 OT SD       0.15E+00    2.8     0.00082899     -1848.0320299309 -1.01E-01

 *** WARNING in fm/cp_fm_elpa.F:522 :: Setting real_kernel for ELPA failed ***

    23 OT SD       0.15E+00    2.9     0.00087027     -1848.1451829711 -1.13E-01

 *** WARNING in fm/cp_fm_elpa.F:522 :: Setting real_kernel for ELPA failed ***

    24 OT SD       0.15E+00    2.8     0.00092042     -1848.2729609820 -1.28E-01

 *** WARNING in fm/cp_fm_elpa.F:522 :: Setting real_kernel for ELPA failed ***

    25 OT SD       0.15E+00    2.8     0.00098009     -1848.4189973433 -1.46E-01

 *** WARNING in fm/cp_fm_elpa.F:522 :: Setting real_kernel for ELPA failed ***

    26 OT SD       0.15E+00    2.8     0.00104938     -1848.5878209361 -1.69E-01

 *** WARNING in fm/cp_fm_elpa.F:522 :: Setting real_kernel for ELPA failed ***

    27 OT SD       0.15E+00    2.8     0.00112734     -1848.7847203138 -1.97E-01

 *** WARNING in fm/cp_fm_elpa.F:522 :: Setting real_kernel for ELPA failed ***

    28 OT SD       0.15E+00    2.8     0.00121129     -1849.0153459448 -2.31E-01

 *** WARNING in fm/cp_fm_elpa.F:522 :: Setting real_kernel for ELPA failed ***

    29 OT SD       0.15E+00    2.8     0.00129608     -1849.2847330080 -2.69E-01

 *** WARNING in fm/cp_fm_elpa.F:522 :: Setting real_kernel for ELPA failed ***

    30 OT SD       0.15E+00    2.8     0.00137375     -1849.5955317287 -3.11E-01

  Leaving inner SCF loop after reaching    30 steps.


  Electronic density on regular grids:       -874.4545542577       13.5454457423
  Core density on regular grids:              887.9999999569       -0.0000000431
  Total charge density on r-space grids:       13.5454456992
  Total charge density g-space grids:          13.5454456992

  Overlap energy of the core charge distribution:              42.73911777915239
  Self energy of the core charge distribution:              -5102.84296118906968
  Core Hamiltonian energy:                                   1631.47361505031586
  Hartree energy:                                            2063.55728251975643
  Exchange-correlation energy:                               -484.52258588883404

  Total energy:                                             -1849.59553172867913

  outer SCF iter =    9 RMS gradient =   0.14E-02 energy =      -1849.5955317287

  ----------------------------------- OT ---------------------------------------
  Minimizer      : DIIS                : direct inversion
                                         in the iterative subspace
                                         using   7 DIIS vectors
                                         safer DIIS on
  Preconditioner : FULL_ALL            : diagonalization, state selective
  Precond_solver : DEFAULT
  stepsize       :    0.15000000                  energy_gap     :    0.00100000
  eps_taylor     :   0.10000E-15                  max_taylor     :             4
  ----------------------------------- OT ---------------------------------------

  Step     Update method      Time    Convergence         Total energy    Change
  ------------------------------------------------------------------------------

 *** WARNING in fm/cp_fm_elpa.F:522 :: Setting real_kernel for ELPA failed ***


 *** WARNING in fm/cp_fm_elpa.F:522 :: Setting real_kernel for ELPA failed ***


 *** WARNING in fm/cp_fm_elpa.F:522 :: Setting real_kernel for ELPA failed ***


 *** WARNING in fm/cp_fm_elpa.F:522 :: Setting real_kernel for ELPA failed ***

     1 OT DIIS     0.15E+00   10.7     0.00444854     -1849.9457442592 -3.50E-01

 *** WARNING in fm/cp_fm_elpa.F:522 :: Setting real_kernel for ELPA failed ***

     2 OT DIIS     0.15E+00    2.8     0.00361425     -1852.4900955156 -2.54E+00

 *** WARNING in fm/cp_fm_elpa.F:522 :: Setting real_kernel for ELPA failed ***

     3 OT DIIS     0.15E+00    2.8     0.00256156     -1854.2189679292 -1.73E+00

 *** WARNING in fm/cp_fm_elpa.F:522 :: Setting real_kernel for ELPA failed ***

     4 OT DIIS     0.15E+00    2.8     0.00237099     -1854.3250007842 -1.06E-01

 *** WARNING in fm/cp_fm_elpa.F:522 :: Setting real_kernel for ELPA failed ***

     5 OT DIIS     0.15E+00    2.8     0.00182676     -1854.2307347557  9.43E-02

 *** WARNING in fm/cp_fm_elpa.F:522 :: Setting real_kernel for ELPA failed ***

     6 OT DIIS     0.15E+00    2.8     0.00195571     -1854.0317903193  1.99E-01

 *** WARNING in fm/cp_fm_elpa.F:522 :: Setting real_kernel for ELPA failed ***

     7 OT DIIS     0.15E+00    2.9     0.00191131     -1854.0087419294  2.30E-02

 *** WARNING in fm/cp_fm_elpa.F:522 :: Setting real_kernel for ELPA failed ***

     8 OT DIIS     0.15E+00    2.8     0.00161875     -1854.2294084192 -2.21E-01

 *** WARNING in fm/cp_fm_elpa.F:522 :: Setting real_kernel for ELPA failed ***

     9 OT DIIS     0.15E+00    2.8     0.00160140     -1854.6429717418 -4.14E-01

 *** WARNING in fm/cp_fm_elpa.F:522 :: Setting real_kernel for ELPA failed ***

    10 OT DIIS     0.15E+00    2.9     0.00124391     -1855.2918745773 -6.49E-01

 *** WARNING in fm/cp_fm_elpa.F:522 :: Setting real_kernel for ELPA failed ***

    11 OT DIIS     0.15E+00    2.8     0.00123591     -1855.7783418241 -4.86E-01

 *** WARNING in fm/cp_fm_elpa.F:522 :: Setting real_kernel for ELPA failed ***

    12 OT DIIS     0.15E+00    2.9     0.00094737     -1856.8905436498 -1.11E+00

 *** WARNING in fm/cp_fm_elpa.F:522 :: Setting real_kernel for ELPA failed ***

    13 OT DIIS     0.15E+00    2.8     0.00074455     -1857.8889895961 -9.98E-01

 *** WARNING in fm/cp_fm_elpa.F:522 :: Setting real_kernel for ELPA failed ***

    14 OT DIIS     0.15E+00    2.8     0.00077772     -1858.4970074496 -6.08E-01

 *** WARNING in fm/cp_fm_elpa.F:522 :: Setting real_kernel for ELPA failed ***

    15 OT DIIS     0.15E+00    2.8     0.00074791     -1858.9850028498 -4.88E-01

 *** WARNING in fm/cp_fm_elpa.F:522 :: Setting real_kernel for ELPA failed ***

    16 OT DIIS     0.15E+00    2.8     0.00061633     -1860.0254050185 -1.04E+00

 *** WARNING in fm/cp_fm_elpa.F:522 :: Setting real_kernel for ELPA failed ***

    17 OT DIIS     0.15E+00    2.8     0.00060146     -1860.8359203937 -8.11E-01

 *** WARNING in fm/cp_fm_elpa.F:522 :: Setting real_kernel for ELPA failed ***

    18 OT DIIS     0.15E+00    2.8     0.00055918     -1860.9406165376 -1.05E-01

 *** WARNING in fm/cp_fm_elpa.F:522 :: Setting real_kernel for ELPA failed ***

    19 OT DIIS     0.15E+00    3.1     0.00055872     -1861.0858821947 -1.45E-01

 *** WARNING in fm/cp_fm_elpa.F:522 :: Setting real_kernel for ELPA failed ***

    20 OT DIIS     0.15E+00    3.7     0.00055593     -1861.0954386873 -9.56E-03

 *** WARNING in fm/cp_fm_elpa.F:522 :: Setting real_kernel for ELPA failed ***

    21 OT DIIS     0.15E+00    2.8     0.00055033     -1861.1140132456 -1.86E-02

 *** WARNING in fm/cp_fm_elpa.F:522 :: Setting real_kernel for ELPA failed ***

    22 OT DIIS     0.15E+00    2.8     0.00054514     -1861.2213047491 -1.07E-01

 *** WARNING in fm/cp_fm_elpa.F:522 :: Setting real_kernel for ELPA failed ***

    23 OT DIIS     0.15E+00    2.8     0.00054532     -1861.2982504311 -7.69E-02

 *** WARNING in fm/cp_fm_elpa.F:522 :: Setting real_kernel for ELPA failed ***

    24 OT DIIS     0.15E+00    2.7     0.00054523     -1861.3182137170 -2.00E-02

 *** WARNING in fm/cp_fm_elpa.F:522 :: Setting real_kernel for ELPA failed ***

    25 OT SD       0.15E+00    2.8     0.00054655     -1861.3725294938 -5.43E-02

 *** WARNING in fm/cp_fm_elpa.F:522 :: Setting real_kernel for ELPA failed ***

    26 OT SD       0.15E+00    2.9     0.00055240     -1861.5319438534 -1.59E-01

 *** WARNING in fm/cp_fm_elpa.F:522 :: Setting real_kernel for ELPA failed ***

    27 OT SD       0.15E+00    3.1     0.00056127     -1861.6889278670 -1.57E-01

 *** WARNING in fm/cp_fm_elpa.F:522 :: Setting real_kernel for ELPA failed ***

    28 OT SD       0.15E+00    2.8     0.00057301     -1861.8438834916 -1.55E-01

 *** WARNING in fm/cp_fm_elpa.F:522 :: Setting real_kernel for ELPA failed ***

    29 OT SD       0.15E+00    2.8     0.00058758     -1861.9972954683 -1.53E-01

 *** WARNING in fm/cp_fm_elpa.F:522 :: Setting real_kernel for ELPA failed ***

    30 OT SD       0.15E+00    2.9     0.00060499     -1862.1497450488 -1.52E-01

  Leaving inner SCF loop after reaching    30 steps.


  Electronic density on regular grids:       -878.3900986871        9.6099013129
  Core density on regular grids:              887.9999999569       -0.0000000431
  Total charge density on r-space grids:        9.6099012698
  Total charge density g-space grids:           9.6099012698

  Overlap energy of the core charge distribution:              42.73911777915239
  Self energy of the core charge distribution:              -5102.84296118906968
  Core Hamiltonian energy:                                   1627.36605912446976
  Hartree energy:                                            2057.46807941781844
  Exchange-correlation energy:                               -486.88004018117647

  Total energy:                                             -1862.14974504880547

  outer SCF iter =   10 RMS gradient =   0.60E-03 energy =      -1862.1497450488

  ----------------------------------- OT ---------------------------------------
  Minimizer      : DIIS                : direct inversion
                                         in the iterative subspace
                                         using   7 DIIS vectors
                                         safer DIIS on
  Preconditioner : FULL_ALL            : diagonalization, state selective
  Precond_solver : DEFAULT
[...]

    23 OT DIIS     0.15E+00    4.1     0.00031667     -1873.5704266917 -2.61E-01

 *** WARNING in fm/cp_fm_elpa.F:522 :: Setting real_kernel for ELPA failed ***

    24 OT DIIS     0.15E+00    4.1     0.00031634     -1873.8831335205 -3.13E-01

 *** WARNING in fm/cp_fm_elpa.F:522 :: Setting real_kernel for ELPA failed ***

    25 OT DIIS     0.15E+00    4.1     0.00031635     -1874.1217659142 -2.39E-01

 *** WARNING in fm/cp_fm_elpa.F:522 :: Setting real_kernel for ELPA failed ***

    26 OT DIIS     0.15E+00    4.1     0.00031620     -1874.2653927386 -1.44E-01

 *** WARNING in fm/cp_fm_elpa.F:522 :: Setting real_kernel for ELPA failed ***

    27 OT DIIS     0.15E+00    4.1     0.00031605     -1874.5006477305 -2.35E-01

 *** WARNING in fm/cp_fm_elpa.F:522 :: Setting real_kernel for ELPA failed ***

    28 OT SD       0.15E+00    3.9     0.00031605     -1874.6270442806 -1.26E-01

 *** WARNING in fm/cp_fm_elpa.F:522 :: Setting real_kernel for ELPA failed ***

    29 OT SD       0.15E+00    4.1     0.00031653     -1874.7002145480 -7.32E-02

 *** WARNING in fm/cp_fm_elpa.F:522 :: Setting real_kernel for ELPA failed ***

    30 OT SD       0.15E+00    4.1     0.00031712     -1874.7758711904 -7.57E-02

  Leaving inner SCF loop after reaching    30 steps.


  Electronic density on regular grids:       -877.1528910246       10.8471089754
  Core density on regular grids:              887.9999999569       -0.0000000431
  Total charge density on r-space grids:       10.8471089323
  Total charge density g-space grids:          10.8471089323

  Overlap energy of the core charge distribution:              42.73911777915239
  Self energy of the core charge distribution:              -5102.84296118906968
  Core Hamiltonian energy:                                   1620.34833848476410
  Hartree energy:                                            2052.36713931689837
  Exchange-correlation energy:                               -487.38750558214599

  Total energy:                                             -1874.77587119040072

  outer SCF iter =   30 RMS gradient =   0.32E-03 energy =      -1874.7758711904

  ----------------------------------- OT ---------------------------------------
  Minimizer      : DIIS                : direct inversion
                                         in the iterative subspace
                                         using   7 DIIS vectors
                                         safer DIIS on
  Preconditioner : FULL_ALL            : diagonalization, state selective
  Precond_solver : DEFAULT
  stepsize       :    0.15000000                  energy_gap     :    0.00100000
  eps_taylor     :   0.10000E-15                  max_taylor     :             4
  ----------------------------------- OT ---------------------------------------

  Step     Update method      Time    Convergence         Total energy    Change
  ------------------------------------------------------------------------------

 *** WARNING in fm/cp_fm_elpa.F:522 :: Setting real_kernel for ELPA failed ***


 *** WARNING in fm/cp_fm_elpa.F:522 :: Setting real_kernel for ELPA failed ***


 *** WARNING in fm/cp_fm_elpa.F:522 :: Setting real_kernel for ELPA failed ***


 *** WARNING in fm/cp_fm_elpa.F:522 :: Setting real_kernel for ELPA failed ***

     1 OT DIIS     0.15E+00   15.0     0.00425433     -1874.8538282047 -7.80E-02

 *** WARNING in fm/cp_fm_elpa.F:522 :: Setting real_kernel for ELPA failed ***

     2 OT DIIS     0.15E+00    4.2     0.00382879     -1877.7280059153 -2.87E+00

 *** WARNING in fm/cp_fm_elpa.F:522 :: Setting real_kernel for ELPA failed ***

     3 OT DIIS     0.15E+00    4.1     0.00330984     -1880.3985453438 -2.67E+00

 *** WARNING in fm/cp_fm_elpa.F:522 :: Setting real_kernel for ELPA failed ***

     4 OT SD       0.15E+00    4.1     0.00319272     -1882.4499851519 -2.05E+00

 *** WARNING in fm/cp_fm_elpa.F:522 :: Setting real_kernel for ELPA failed ***

     5 OT DIIS     0.15E+00    3.9     0.00192145     -1883.4448364468 -9.95E-01

 *** WARNING in fm/cp_fm_elpa.F:522 :: Setting real_kernel for ELPA failed ***

     6 OT DIIS     0.15E+00    5.6     0.00123144     -1883.6235044807 -1.79E-01

 *** WARNING in fm/cp_fm_elpa.F:522 :: Setting real_kernel for ELPA failed ***

     7 OT DIIS     0.15E+00    5.3     0.00141515     -1883.2283493144  3.95E-01

 *** WARNING in fm/cp_fm_elpa.F:522 :: Setting real_kernel for ELPA failed ***

     8 OT DIIS     0.15E+00    5.0     0.00143477     -1883.0710987718  1.57E-01

 *** WARNING in fm/cp_fm_elpa.F:522 :: Setting real_kernel for ELPA failed ***

     9 OT DIIS     0.15E+00    5.5     0.00112919     -1882.8666659034  2.04E-01

 *** WARNING in fm/cp_fm_elpa.F:522 :: Setting real_kernel for ELPA failed ***

    10 OT DIIS     0.15E+00    5.1     0.00106050     -1882.0540844546  8.13E-01

 *** WARNING in fm/cp_fm_elpa.F:522 :: Setting real_kernel for ELPA failed ***

    11 OT DIIS     0.15E+00    5.6     0.00082314     -1881.0365459267  1.02E+00

 *** WARNING in fm/cp_fm_elpa.F:522 :: Setting real_kernel for ELPA failed ***

    12 OT DIIS     0.15E+00    5.5     0.00079033     -1880.3642543360  6.72E-01

 *** WARNING in fm/cp_fm_elpa.F:522 :: Setting real_kernel for ELPA failed ***

    13 OT DIIS     0.15E+00    5.4     0.00076854     -1880.1974351429  1.67E-01

 *** WARNING in fm/cp_fm_elpa.F:522 :: Setting real_kernel for ELPA failed ***

    14 OT SD       0.15E+00    4.3     0.00078840     -1879.9391358066  2.58E-01

 *** WARNING in fm/cp_fm_elpa.F:522 :: Setting real_kernel for ELPA failed ***

    15 OT SD       0.15E+00    4.1     0.00076978     -1879.8520729272  8.71E-02

 *** WARNING in fm/cp_fm_elpa.F:522 :: Setting real_kernel for ELPA failed ***

    16 OT SD       0.15E+00    4.2     0.00076515     -1879.7866196291  6.55E-02

 *** WARNING in fm/cp_fm_elpa.F:522 :: Setting real_kernel for ELPA failed ***

    17 OT SD       0.15E+00    4.2     0.00076422     -1879.7446352091  4.20E-02

 *** WARNING in fm/cp_fm_elpa.F:522 :: Setting real_kernel for ELPA failed ***

    18 OT SD       0.15E+00    3.6     0.00076565     -1879.7253282030  1.93E-02

 *** WARNING in fm/cp_fm_elpa.F:522 :: Setting real_kernel for ELPA failed ***

    19 OT SD       0.15E+00    4.1     0.00076910     -1879.7275384166 -2.21E-03

 *** WARNING in fm/cp_fm_elpa.F:522 :: Setting real_kernel for ELPA failed ***

    20 OT SD       0.15E+00    4.2     0.00077446     -1879.7499961013 -2.25E-02

 *** WARNING in fm/cp_fm_elpa.F:522 :: Setting real_kernel for ELPA failed ***

    21 OT SD       0.15E+00    4.1     0.00078172     -1879.7914200992 -4.14E-02

 *** WARNING in fm/cp_fm_elpa.F:522 :: Setting real_kernel for ELPA failed ***

    22 OT SD       0.15E+00    4.2     0.00079087     -1879.8505725289 -5.92E-02

 *** WARNING in fm/cp_fm_elpa.F:522 :: Setting real_kernel for ELPA failed ***

    23 OT SD       0.15E+00    3.9     0.00080190     -1879.9262962104 -7.57E-02

 *** WARNING in fm/cp_fm_elpa.F:522 :: Setting real_kernel for ELPA failed ***

    24 OT SD       0.15E+00    3.9     0.00081479     -1880.0175057885 -9.12E-02

 *** WARNING in fm/cp_fm_elpa.F:522 :: Setting real_kernel for ELPA failed ***

    25 OT SD       0.15E+00    4.0     0.00082951     -1880.1232191022 -1.06E-01

 *** WARNING in fm/cp_fm_elpa.F:522 :: Setting real_kernel for ELPA failed ***

    26 OT SD       0.15E+00    4.1     0.00084602     -1880.2425950739 -1.19E-01

 *** WARNING in fm/cp_fm_elpa.F:522 :: Setting real_kernel for ELPA failed ***

    27 OT SD       0.15E+00    3.9     0.00086430     -1880.3749036340 -1.32E-01

 *** WARNING in fm/cp_fm_elpa.F:522 :: Setting real_kernel for ELPA failed ***

    28 OT SD       0.15E+00    4.9     0.00088429     -1880.5195188888 -1.45E-01

 *** WARNING in fm/cp_fm_elpa.F:522 :: Setting real_kernel for ELPA failed ***

    29 OT SD       0.15E+00    4.5     0.00090595     -1880.6759696609 -1.56E-01

 *** WARNING in fm/cp_fm_elpa.F:522 :: Setting real_kernel for ELPA failed ***

    30 OT SD       0.15E+00    4.2     0.00092924     -1880.8439072601 -1.68E-01

  Leaving inner SCF loop after reaching    30 steps.


  Electronic density on regular grids:       -876.6288257913       11.3711742087
  Core density on regular grids:              887.9999999569       -0.0000000431
  Total charge density on r-space grids:       11.3711741655
  Total charge density g-space grids:          11.3711741655

  Overlap energy of the core charge distribution:              42.73911777915239
  Self energy of the core charge distribution:              -5102.84296118906968
  Core Hamiltonian energy:                                   1610.50347900390625
  Hartree energy:                                            2055.26480833972346
  Exchange-correlation energy:                               -486.50835119382020

  Total energy:                                             -1880.84390726010770

  outer SCF iter =   31 RMS gradient =   0.93E-03 energy =      -1880.8439072601
  outer SCF loop FAILED to converge after   31 iterations or  930 steps


 *** WARNING in qs_scf.F:602 :: SCF run NOT converged ***


 *******************************************************************************
 **                                                                           **
 **         ######## #######   #######   ######## #######  ########           **
 **            ##    ##     ## ##     ## ##       ##   ##     ##              **
 **            ##    ##     ## ##     ## ######   #######     ##              **
 **            ##    ##     ## ##     ## ##       ##          ##              **
 **            ##    #######   #######   ##       ##          ##              **
 **                                                                           **
 *******************************************************************************
 KERNEL|                                                                    FULL
 FUNCTIONAL| PBE:
 FUNCTIONAL| J.P.Perdew, K.Burke, M.Ernzerhof, Phys. Rev. Letter, vol. 77, n 18,
 FUNCTIONAL|  pp. 3865-3868, (1996){spin unpolarized}                           
 KERNEL| Spin symmetry of excitations                                    Singlet
 TDDFPT| Number of states calculated                                         100
 TDDFPT| Number of Davidson iterations                                        50
 TDDFPT| Davidson iteration convergence                                0.367E-05
 TDDFPT| Max. number of Krylov space vectors                                5000

 *** WARNING in fm/cp_fm_elpa.F:522 :: Setting real_kernel for ELPA failed ***

 TDDFPT| Molecular Orbitals:        Spin       AOs       Occ      Virt     Total
 TDDFPT|                               1      3148       444      2704      3148
 
 -------------------------------------------------------------------------------
 -                            TDDFPT Initial Guess                             -
 -------------------------------------------------------------------------------
          State         Occupied      ->      Virtual          Excitation
          number         orbital              orbital          energy (eV)
 -------------------------------------------------------------------------------
             1              444                  445              0.08843
             2              443                  445              0.11054
             3              444                  446              0.11148
             4              444                  447              0.13089
             5              443                  446              0.13359
             6              443                  447              0.15300
             7              442                  445              0.16959
             8              441                  445              0.18270
             9              442                  446              0.19264
            10              440                  445              0.19466
            11              439                  445              0.20167
            12              441                  446              0.20576
            13              442                  447              0.21205
            14              440                  446              0.21771
            15              439                  446              0.22472
            16              441                  447              0.22517
            17              440                  447              0.23712
            18              439                  447              0.24414
            19              438                  445              0.25210
            20              438                  446              0.27515
            21              437                  445              0.29435
            22              438                  447              0.29456
            23              444                  448              0.30260
            24              444                  449              0.31153
            25              437                  446              0.31740
            26              443                  448              0.32471
            27              443                  449              0.33364
            28              444                  450              0.33537
            29              437                  447              0.33681
            30              436                  445              0.34421
            31              444                  451              0.34635
            32              443                  450              0.35748
            33              436                  446              0.36726
            34              443                  451              0.36846
            35              435                  445              0.36994
            36              442                  448              0.38376
            37              436                  447              0.38667
            38              442                  449              0.39269
            39              435                  446              0.39299
            40              441                  448              0.39687
            41              434                  445              0.40274
            42              441                  449              0.40580
            43              440                  448              0.40882
            44              435                  447              0.41240
            45              439                  448              0.41584
            46              442                  450              0.41653
            47              440                  449              0.41775
            48              433                  445              0.41824
            49              439                  449              0.42477
            50              434                  446              0.42579
            51              442                  451              0.42751
            52              441                  450              0.42964
            53              441                  451              0.44062
            54              433                  446              0.44129
            55              440                  450              0.44160
            56              434                  447              0.44520
            57              432                  445              0.44599
            58              439                  450              0.44861
            59              440                  451              0.45257
            60              439                  451              0.45959
            61              433                  447              0.46070
            62              438                  448              0.46626
            63              444                  452              0.46669
            64              432                  446              0.46904
            65              438                  449              0.47519
            66              432                  447              0.48845
            67              443                  452              0.48880
            68              438                  450              0.49904
            69              437                  448              0.50851
            70              438                  451              0.51001
            71              437                  449              0.51744
            72              444                  453              0.53085
            73              437                  450              0.54129
            74              442                  452              0.54785
            75              431                  445              0.55076
            76              437                  451              0.55226
            77              443                  453              0.55296
            78              444                  454              0.55386
            79              436                  448              0.55837
            80              441                  452              0.56096
            81              436                  449              0.56730
            82              440                  452              0.57291
            83              431                  446              0.57381
            84              430                  445              0.57578
            85              443                  454              0.57597
            86              439                  452              0.57993
            87              435                  448              0.58411
            88              436                  450              0.59115
            89              435                  449              0.59304
            90              431                  447              0.59322
            91              430                  446              0.59883
            92              436                  451              0.60212
            93              444                  455              0.60533
            94              442                  453              0.61201
            95              435                  450              0.61688
            96              434                  448              0.61690
            97              430                  447              0.61824
            98              441                  453              0.62513
            99              434                  449              0.62583
           100              443                  455              0.62744

      Number of active states:                                    1200576
 -------------------------------------------------------------------------------
 
 -------------------------------------------------------------------------------
 -                      TDDFPT WAVEFUNCTION OPTIMIZATION                       -
 -------------------------------------------------------------------------------

          Step            Time         Convergence           Conv. states
 -------------------------------------------------------------------------------

 *** WARNING in fm/cp_fm_elpa.F:522 :: Setting real_kernel for ELPA failed ***

             1           427.4          1.6250E-01                      0

 *** WARNING in fm/cp_fm_elpa.F:522 :: Setting real_kernel for ELPA failed ***


===================================================================================
=   BAD TERMINATION OF ONE OF YOUR APPLICATION PROCESSES
=   PID 538 RUNNING AT 78d8c42ade7e
=   EXIT CODE: 9
=   CLEANING UP REMAINING PROCESSES
=   YOU CAN IGNORE THE BELOW CLEANUP MESSAGES
===================================================================================
YOUR APPLICATION TERMINATED WITH THE EXIT STRING: Killed (signal 9)
This typically refers to a problem with your application.
Please see the FAQ page for debugging suggestions
