 DBCSR| CPU Multiplication driver                                           XSMM (U)
 DBCSR| Multrec recursion limit                                              512 (U)
 DBCSR| Multiplication stack size                                           1000 (D)
 DBCSR| Maximum elements for images                                    UNLIMITED (U)
 DBCSR| Multiplicative factor virtual images                                   1 (U)
 DBCSR| Use multiplication densification                                       T (D)
 DBCSR| Multiplication size stacks                                             3 (U)
 DBCSR| Use memory pool for CPU allocation                                     F (U)
 DBCSR| Number of 3D layers                                               SINGLE (U)
 DBCSR| Use MPI memory allocation                                              F (U)
 DBCSR| Use RMA algorithm                                                      F (U)
 DBCSR| Use Communication thread                                               T (U)
 DBCSR| Communication thread load                                             83 (D)
 DBCSR| MPI: My process id                                                     0
 DBCSR| MPI: Number of processes                                              88
 DBCSR| OMP: Current number of threads                                         2
 DBCSR| OMP: Max number of threads                                             2
 DBCSR| Split modifier for TAS multiplication algorithm                  1.0E+00 (U)


  **** **** ******  **  PROGRAM STARTED AT               2023-12-23 14:23:57.125
 ***** ** ***  *** **   PROGRAM STARTED ON                          0970b987b257
 **    ****   ******    PROGRAM STARTED BY                             <unknown>
 ***** **    ** ** **   PROGRAM PROCESS ID                                   538
  **** **  *******  **  PROGRAM STARTED IN                                  /mnt

 CP2K| version string:                                       CP2K version 2023.2
 CP2K| source code revision number:                                  git:65cca6c
 CP2K| cp2kflags: omp libint fftw3 libxc pexsi elpa parallel scalapack cosma qui
 CP2K|            p xsmm plumed2 spglib sirius libvori libbqb libtorch libvdwxc
 CP2K| is freely available from                            https://www.cp2k.org/
 CP2K| Program compiled at                          Wed Oct 18 11:40:41 UTC 2023
 CP2K| Program compiled on                                          633bb7bf566f
 CP2K| Program compiled for                                                local
 CP2K| Data directory path                                        /opt/cp2k/data
 CP2K| Input file name                                             4amp34_pbe.in

 GLOBAL| Force Environment number                                              1
 GLOBAL| Basis set file name                                      GTH_BASIS_SETS
 GLOBAL| Potential file name                                           POTENTIAL
 GLOBAL| MM Potential file name                                     MM_POTENTIAL
 GLOBAL| Coordinate file name                                      __STD_INPUT__
 GLOBAL| Method name                                                        CP2K
 GLOBAL| Project name                                                 4AMP34_pbe
 GLOBAL| Run type                                                         ENERGY
 GLOBAL| FFT library                                                       FFTW3
 GLOBAL| Diagonalization library                                       ScaLAPACK
 GLOBAL| DGEMM library                                                      BLAS
 GLOBAL| Orthonormality check for eigenvectors                          DISABLED
 GLOBAL| Matrix multiplication library                                     COSMA
 GLOBAL| All-to-all communication in single precision                          F
 GLOBAL| FFTs using library dependent lengths                                  F
 GLOBAL| Grid backend                                                       AUTO
 GLOBAL| Global print level                                                  LOW
 GLOBAL| MPI I/O enabled                                                       T
 GLOBAL| Total number of message passing processes                            88
 GLOBAL| Number of threads for this process                                    2
 GLOBAL| This output is from process                                           0
 GLOBAL| Stack size for threads created by OpenMP (OMP_STACKSIZE)            16M
 GLOBAL| CPU model name                         AMD EPYC 9V33X 96-Core Processor
 GLOBAL| CPUID                                                              1003
 GLOBAL| Compiled for CPUID                                                    0

 *** HINT in environment.F:904 :: The compiler target flags (generic) used ***
 *** to build this binary cannot exploit all extensions of this CPU model  ***
 *** (x86_avx512). Consider compiler target flags as part of FCFLAGS and   ***
 *** CFLAGS (ARCH file).                                                   ***


 MEMORY| system memory details [Kb]
 MEMORY|                        rank 0           min           max       average
 MEMORY| MemTotal           1444892852    1444892852    1444892852    1444892852
 MEMORY| MemFree            1425671216    1425671216    1425671216    1425671216
 MEMORY| Buffers                 30132         30132         30132         30132
 MEMORY| Cached                 832420        832420        832420        832420
 MEMORY| Slab                  1012544       1012544       1012544       1012544
 MEMORY| SReclaimable           119768        119768        119768        119768
 MEMORY| MemLikelyFree      1426653536    1426653536    1426653536    1426653536


 GENERATE|  Preliminary Number of Bonds generated:                             0
 GENERATE|  Achieved consistency in connectivity generation.

 *******************************************************************************
 *******************************************************************************
 **                                                                           **
 **     #####                         ##              ##                      **
 **    ##   ##            ##          ##              ##                      **
 **   ##     ##                       ##            ######                    **
 **   ##     ##  ##   ##  ##   #####  ##  ##   ####   ##    #####    #####    **
 **   ##     ##  ##   ##  ##  ##      ## ##   ##      ##   ##   ##  ##   ##   **
 **   ##  ## ##  ##   ##  ##  ##      ####     ###    ##   ######   ######    **
 **    ##  ###   ##   ##  ##  ##      ## ##      ##   ##   ##       ##        **
 **     #######   #####   ##   #####  ##  ##  ####    ##    #####   ##        **
 **           ##                                                    ##        **
 **                                                                           **
 **                                                ... make the atoms dance   **
 **                                                                           **
 **            Copyright (C) by CP2K developers group (2000-2023)             **
 **                      J. Chem. Phys. 152, 194103 (2020)                    **
 **                                                                           **
 *******************************************************************************


 TOTAL NUMBERS AND MAXIMUM NUMBERS

  Total number of            - Atomic kinds:                                   5
                             - Atoms:                                        224
                             - Shell sets:                                   448
                             - Shells:                                      1388
                             - Primitive Cartesian functions:               1344
                             - Cartesian basis functions:                   3312
                             - Spherical basis functions:                   3148

  Maximum angular momentum of- Orbital basis functions:                        2
                             - Local part of the GTH pseudopotential:          2
                             - Non-local part of the GTH pseudopotential:      0

 *** WARNING in particle_methods.F:677 :: The distance between the atoms ***
 *** 165 and 181 is only 0.254 angstrom and thus smaller than the        ***
 *** threshold of 0.500 angstrom                                         ***


 *** WARNING in particle_methods.F:677 :: The distance between the atoms ***
 *** 166 and 182 is only 0.254 angstrom and thus smaller than the        ***
 *** threshold of 0.500 angstrom                                         ***


 *** WARNING in particle_methods.F:677 :: The distance between the atoms ***
 *** 167 and 183 is only 0.254 angstrom and thus smaller than the        ***
 *** threshold of 0.500 angstrom                                         ***


 *** WARNING in particle_methods.F:677 :: The distance between the atoms ***
 *** 168 and 184 is only 0.254 angstrom and thus smaller than the        ***
 *** threshold of 0.500 angstrom                                         ***



 SCF PARAMETERS         Density guess:                                    ATOMIC
                        --------------------------------------------------------
                        max_scf:                                             150
                        max_scf_history:                                       0
                        max_diis:                                              4
                        --------------------------------------------------------
                        eps_scf:                                        1.00E-05
                        eps_scf_history:                                0.00E+00
                        eps_diis:                                       1.00E-01
                        eps_eigval:                                     1.00E-05
                        --------------------------------------------------------
                        level_shift [a.u.]:                             0.000000
                        --------------------------------------------------------
                        Outer loop SCF in use
                        No variables optimised in outer loop
                        eps_scf                                         1.00E-05
                        max_scf                                               10
                        No outer loop optimization
                        step_size                                       5.00E-01

 Number of electrons:                                                        888
 Number of occupied orbitals:                                                444
 Number of molecular orbitals:                                               444

 Number of orbital functions:                                               3148
 Number of independent orbital functions:                                   3148

 Extrapolation method: initial_guess


 SCF WAVEFUNCTION OPTIMIZATION

  ----------------------------------- OT ---------------------------------------
  Minimizer      : CG                  : conjugate gradient
  Preconditioner : FULL_ALL            : diagonalization, state selective
  Precond_solver : DEFAULT
  Line search    : 3PNT                : 3 energies
  stepsize       :    0.15000000                  energy_gap     :    0.00100000
  eps_taylor     :   0.10000E-15                  max_taylor     :             4
  ----------------------------------- OT ---------------------------------------

  Step     Update method      Time    Convergence         Total energy    Change
  ------------------------------------------------------------------------------
     1 OT CG       0.12E+00    2.9     0.07782395     -1653.1874116855 -1.65E+03
     2 OT LS       0.60E-01    0.3                    -1614.3665464905
     3 OT LS       0.24E+00    0.3                    -1610.7169362761
     4 OT CG       0.19E+00    0.6     0.11273757     -1497.4323111187  1.56E+02
     5 OT LS       0.96E-01    0.3                    -1247.6532477026
     6 OT LS       0.47E-01    0.3                    -1495.4510107686
     7 OT CG       0.38E-01    0.6     0.05637784     -1596.0959506683 -9.87E+01
     8 OT LS       0.53E-01    0.5                    -1660.7506256484
     9 OT LS       0.48E-01    0.3                    -1663.0147356309
    10 OT CG       0.38E-01    0.6     0.02708925     -1662.9089850519 -6.68E+01
    11 OT LS       0.54E-01    0.3                    -1695.9319167956
    12 OT LS       0.10E+00    0.3                    -1704.9422631156
    13 OT CG       0.83E-01    0.6     0.03736448     -1713.9137709405 -5.10E+01
    14 OT LS       0.41E-01    0.3                    -1703.2547432922
    15 OT LS       0.38E-01    0.3                    -1744.2213833831
    16 OT CG       0.31E-01    0.6     0.02445371     -1744.4473413380 -3.05E+01
    17 OT LS       0.43E-01    0.3                    -1759.9757520980
    18 OT LS       0.43E-01    0.3                    -1761.4244789684
    19 OT CG       0.35E-01    0.7     0.01622857     -1761.4333178147 -1.70E+01
    20 OT LS       0.48E-01    0.3                    -1772.2397781542
    21 OT LS       0.96E-01    0.3                    -1775.2233147632
    22 OT CG       0.76E-01    0.6     0.01618621     -1778.9286628443 -1.75E+01
    23 OT LS       0.11E+00    0.3                    -1784.1958711359
    24 OT LS       0.48E-01    0.3                    -1775.2563430883
    25 OT CG       0.39E-01    0.6     0.01384665     -1786.8939650091 -7.97E+00
    26 OT LS       0.54E-01    0.3                    -1794.1487561973
    27 OT LS       0.67E-01    0.3                    -1795.3832198582
    28 OT CG       0.53E-01    0.6     0.01170539     -1795.7237144783 -8.83E+00
    29 OT LS       0.75E-01    0.3                    -1801.3965943340
    30 OT LS       0.58E-01    0.3                    -1800.9323208659
    31 OT CG       0.46E-01    0.6     0.00901678     -1801.4313833163 -5.71E+00
    32 OT LS       0.65E-01    0.3                    -1803.4033542150
    33 OT LS       0.37E-01    0.3                    -1802.3181935385
    34 OT CG       0.29E-01    0.6     0.00712231     -1803.5404278496 -2.11E+00
    35 OT LS       0.41E-01    0.3                    -1805.2164078255
    36 OT LS       0.73E-01    0.3                    -1805.6524069439
    37 OT CG       0.59E-01    0.6     0.00652054     -1806.1351670508 -2.59E+00
    38 OT LS       0.82E-01    0.3                    -1808.4077486298
    39 OT LS       0.89E-01    0.3                    -1808.6891688793
    40 OT CG       0.71E-01    0.6     0.00741745     -1808.7039474868 -2.57E+00
    41 OT LS       0.99E-01    0.3                    -1811.3846617204
    42 OT LS       0.70E-01    0.3                    -1810.8925523868
    43 OT CG       0.56E-01    0.6     0.00693247     -1811.3857395034 -2.68E+00
    44 OT LS       0.78E-01    0.3                    -1813.1585719295
    45 OT LS       0.52E-01    0.3                    -1812.7418459421
    46 OT CG       0.42E-01    0.6     0.00591075     -1813.1648813041 -1.78E+00
    47 OT LS       0.59E-01    0.3                    -1814.6800046781
    48 OT LS       0.79E-01    0.3                    -1814.9819578849
    49 OT CG       0.64E-01    0.6     0.00607550     -1815.1122767921 -1.95E+00
    50 OT LS       0.89E-01    0.3                    -1816.4751479865
    51 OT LS       0.55E-01    0.3                    -1815.9559564222
    52 OT CG       0.44E-01    0.6     0.00478750     -1816.5132591788 -1.40E+00
    53 OT LS       0.61E-01    0.3                    -1817.4754780639
    54 OT LS       0.70E-01    0.3                    -1817.6172784184
    55 OT CG       0.56E-01    0.6     0.00452069     -1817.6362761771 -1.12E+00
    56 OT LS       0.79E-01    0.3                    -1818.6865361316
    57 OT LS       0.81E-01    0.3                    -1818.7925524990
    58 OT CG       0.64E-01    0.6     0.00540036     -1818.7931872115 -1.16E+00
    59 OT LS       0.90E-01    0.3                    -1820.1726397007
    60 OT LS       0.67E-01    0.3                    -1820.0148648680
    61 OT CG       0.54E-01    0.6     0.00492163     -1820.1753792192 -1.38E+00
    62 OT LS       0.75E-01    0.3                    -1821.2580933391
    63 OT LS       0.66E-01    0.3                    -1821.2739146652
    64 OT CG       0.53E-01    0.6     0.00458078     -1821.2963484014 -1.12E+00
    65 OT LS       0.74E-01    0.3                    -1822.2845598678
    66 OT LS       0.73E-01    0.3                    -1822.3668245314
    67 OT CG       0.59E-01    0.8     0.00471310     -1822.3669505677 -1.07E+00
    68 OT LS       0.82E-01    0.3                    -1823.4476805364
    69 OT LS       0.72E-01    0.3                    -1823.4633052518
    70 OT CG       0.57E-01    0.6     0.00477511     -1823.4860084296 -1.12E+00
    71 OT LS       0.80E-01    0.3                    -1824.5593150493
    72 OT LS       0.69E-01    0.3                    -1824.5561471523
    73 OT CG       0.55E-01    0.6     0.00453262     -1824.5892075923 -1.10E+00
    74 OT LS       0.77E-01    0.3                    -1825.4980829956
    75 OT LS       0.64E-01    0.3                    -1825.4844075838
    76 OT CG       0.52E-01    0.6     0.00462424     -1825.5188410213 -9.30E-01
    77 OT LS       0.72E-01    0.3                    -1826.5396940966
    78 OT LS       0.77E-01    0.3                    -1826.6577831979
    79 OT CG       0.61E-01    0.6     0.00458872     -1826.6615930498 -1.14E+00
    80 OT LS       0.86E-01    0.3                    -1827.6702734206
    81 OT LS       0.70E-01    0.3                    -1827.6307960062
    82 OT CG       0.56E-01    0.6     0.00457539     -1827.6851576392 -1.02E+00
    83 OT LS       0.78E-01    0.3                    -1828.6171365677
    84 OT LS       0.65E-01    0.3                    -1828.5967021000
    85 OT CG       0.52E-01    0.6     0.00419595     -1828.6360611767 -9.51E-01
    86 OT LS       0.73E-01    0.3                    -1829.4388119441
    87 OT LS       0.70E-01    0.3                    -1829.4920362468
    88 OT CG       0.56E-01    0.6     0.00421788     -1829.4938873854 -8.58E-01
    89 OT LS       0.78E-01    0.3                    -1830.3253493850
    90 OT LS       0.70E-01    0.3                    -1830.3481735954
    91 OT CG       0.56E-01    0.6     0.00400502     -1830.3604792275 -8.67E-01
    92 OT LS       0.78E-01    0.3                    -1831.0953486609
    93 OT LS       0.68E-01    0.3                    -1831.1026686181
    94 OT CG       0.54E-01    0.6     0.00386513     -1831.1196278114 -7.59E-01
    95 OT LS       0.76E-01    0.3                    -1831.8246586590
    96 OT LS       0.72E-01    0.3                    -1831.8680089928
    97 OT CG       0.58E-01    0.6     0.00384633     -1831.8702562903 -7.51E-01
    98 OT LS       0.81E-01    0.3                    -1832.5759462480
    99 OT LS       0.71E-01    0.3                    -1832.5856795927
   100 OT CG       0.56E-01    0.6     0.00381640     -1832.6006628316 -7.30E-01
   101 OT LS       0.79E-01    0.3                    -1833.2949975121
   102 OT LS       0.71E-01    0.3                    -1833.3169858383
   103 OT CG       0.57E-01    0.6     0.00357791     -1833.3260071680 -7.25E-01
   104 OT LS       0.80E-01    0.3                    -1833.9389244449
   105 OT LS       0.71E-01    0.3                    -1833.9571608293
   106 OT CG       0.57E-01    0.6     0.00361188     -1833.9655593338 -6.40E-01
   107 OT LS       0.80E-01    0.3                    -1834.5869737848
   108 OT LS       0.71E-01    0.3                    -1834.5998626990
   109 OT CG       0.57E-01    0.6     0.00347367     -1834.6108752992 -6.45E-01
   110 OT LS       0.79E-01    0.3                    -1835.1687762035
   111 OT LS       0.68E-01    0.5                    -1835.1692958438
   112 OT CG       0.54E-01    1.6     0.00336902     -1835.1849570515 -5.74E-01
   113 OT LS       0.76E-01    0.3                    -1835.7136313292
   114 OT LS       0.70E-01    0.3                    -1835.7365512850
   115 OT CG       0.56E-01    0.6     0.00323666     -1835.7410514605 -5.56E-01
   116 OT LS       0.78E-01    0.3                    -1836.2413227673
   117 OT LS       0.72E-01    0.3                    -1836.2615272526
   118 OT CG       0.57E-01    0.6     0.00322208     -1836.2663326165 -5.25E-01
   119 OT LS       0.80E-01    0.3                    -1836.7682371935
   120 OT LS       0.72E-01    0.3                    -1836.7843000724
   121 OT CG       0.58E-01    0.6     0.00318537     -1836.7907290499 -5.24E-01
   122 OT LS       0.81E-01    0.3                    -1837.2711708576
   123 OT LS       0.70E-01    0.3                    -1837.2742015841
   124 OT CG       0.56E-01    0.6     0.00312408     -1837.2862216175 -4.95E-01
   125 OT LS       0.78E-01    0.3                    -1837.7506093906
   126 OT LS       0.72E-01    0.3                    -1837.7695887684
   127 OT CG       0.57E-01    0.6     0.00305008     -1837.7738719690 -4.88E-01
   128 OT LS       0.80E-01    0.3                    -1838.2197663878
   129 OT LS       0.71E-01    0.3                    -1838.2306536833
   130 OT CG       0.57E-01    0.6     0.00303080     -1838.2377947236 -4.64E-01
   131 OT LS       0.80E-01    0.3                    -1838.6791652142
   132 OT LS       0.72E-01    0.3                    -1838.6918151665
   133 OT CG       0.57E-01    0.6     0.00290055     -1838.6980955428 -4.60E-01
   134 OT LS       0.80E-01    0.3                    -1839.0988154928
   135 OT LS       0.71E-01    0.3                    -1839.1056334618
   136 OT CG       0.56E-01    0.6     0.00283240     -1839.1135055196 -4.15E-01
   137 OT LS       0.79E-01    0.3                    -1839.5003282607
   138 OT LS       0.72E-01    0.3                    -1839.5170277497
   139 OT CG       0.58E-01    0.6     0.00278660     -1839.5203378647 -4.07E-01
   140 OT LS       0.81E-01    0.3                    -1839.8960560322
   141 OT LS       0.72E-01    0.3                    -1839.9043508919
   142 OT CG       0.58E-01    0.6     0.00274018     -1839.9107854837 -3.90E-01
   143 OT LS       0.81E-01    0.3                    -1840.2751384675
   144 OT LS       0.73E-01    0.3                    -1840.2867265108
   145 OT CG       0.58E-01    0.6     0.00269189     -1840.2913960028 -3.81E-01
   146 OT LS       0.81E-01    0.3                    -1840.6396606474
   147 OT LS       0.71E-01    0.3                    -1840.6448324069
   148 OT CG       0.57E-01    0.6     0.00263016     -1840.6520099479 -3.61E-01
   149 OT LS       0.80E-01    0.3                    -1840.9885004883
   150 OT LS       0.73E-01    0.3                    -1841.0029870205

  Leaving inner SCF loop after reaching   150 steps.


  Electronic density on regular grids:       -888.0008664889       -0.0008664889
  Core density on regular grids:              887.9999999570       -0.0000000430
  Total charge density on r-space grids:       -0.0008665319
  Total charge density g-space grids:          -0.0008665319

  Overlap energy of the core charge distribution:              42.73927701864653
  Self energy of the core charge distribution:              -5102.84296118906968
  Core Hamiltonian energy:                                   1703.74552270770073
  Hartree energy:                                            2017.78976113440285
  Exchange-correlation energy:                               -502.43458669218410

  Total energy:                                             -1841.00298702050395

  outer SCF iter =    1 RMS gradient =   0.26E-02 energy =      -1841.0029870205

  ----------------------------------- OT ---------------------------------------
  Minimizer      : CG                  : conjugate gradient
  Preconditioner : FULL_ALL            : diagonalization, state selective
  Precond_solver : DEFAULT
  Line search    : 3PNT                : 3 energies
  stepsize       :    0.15000000                  energy_gap     :    0.00100000
  eps_taylor     :   0.10000E-15                  max_taylor     :             4
  ----------------------------------- OT ---------------------------------------

  Step     Update method      Time    Convergence         Total energy    Change
  ------------------------------------------------------------------------------
     1 OT CG       0.12E+00    2.6     0.00996810     -1841.0058613579 -3.54E-01
     2 OT LS       0.17E+00    0.3                    -1850.7864287698
     3 OT LS       0.13E+00    0.3                    -1849.6686660316
     4 OT CG       0.10E+00    0.6     0.00679422     -1850.8014928717 -9.80E+00
     5 OT LS       0.14E+00    0.3                    -1850.9248149071
     6 OT LS       0.53E-01    0.3                    -1849.8754156088
     7 OT CG       0.43E-01    0.6     0.00970665     -1851.7778865680 -9.76E-01
     8 OT LS       0.21E-01    0.3                    -1850.9117223061
     9 OT LS       0.18E-01    0.3                    -1852.8162901696
    10 OT CG       0.15E-01    0.6     0.00432201     -1852.8463001160 -1.07E+00
    11 OT LS       0.20E-01    0.3                    -1853.1728952230
    12 OT LS       0.52E-01    0.3                    -1853.2737212445
    13 OT CG       0.42E-01    0.6     0.00273214     -1853.5296866945 -6.83E-01
    14 OT LS       0.58E-01    0.3                    -1853.7593147640
    15 OT LS       0.48E-01    0.3                    -1853.7538644224
    16 OT CG       0.39E-01    0.6     0.00172678     -1853.7627014143 -2.33E-01
    17 OT LS       0.54E-01    0.3                    -1853.8577035123
    18 OT LS       0.48E-01    0.3                    -1853.8598447723
    19 OT CG       0.38E-01    0.6     0.00130103     -1853.8614001404 -9.87E-02
    20 OT LS       0.54E-01    0.3                    -1853.9241859057
    21 OT LS       0.62E-01    0.3                    -1853.9336203258
    22 OT CG       0.50E-01    0.6     0.00087198     -1853.9349757568 -7.36E-02
    23 OT LS       0.70E-01    0.3                    -1853.9694569859
    24 OT LS       0.73E-01    0.3                    -1853.9733003261
    25 OT CG       0.58E-01    0.6     0.00068703     -1853.9734071276 -3.84E-02
    26 OT LS       0.82E-01    0.3                    -1853.9954976376
    27 OT LS       0.68E-01    0.3                    -1853.9949945110
    28 OT CG       0.54E-01    0.6     0.00051376     -1853.9959367032 -2.25E-02
    29 OT LS       0.76E-01    0.3                    -1854.0097409588
    30 OT LS       0.88E-01    0.3                    -1854.0118293439
    31 OT CG       0.71E-01    0.6     0.00045792     -1854.0121553412 -1.62E-02
    32 OT LS       0.99E-01    0.3                    -1854.0223201877
    33 OT LS       0.69E-01    0.3                    -1854.0204104133
    34 OT CG       0.55E-01    0.6     0.00039707     -1854.0223247803 -1.02E-02
    35 OT LS       0.77E-01    0.3                    -1854.0304204160
    36 OT LS       0.82E-01    0.3                    -1854.0313713584
    37 OT CG       0.66E-01    0.6     0.00032415     -1854.0314041446 -9.08E-03
    38 OT LS       0.92E-01    0.3                    -1854.0377659498
    39 OT LS       0.96E-01    0.3                    -1854.0384511910
    40 OT CG       0.77E-01    0.6     0.00027888     -1854.0384611718 -7.06E-03
    41 OT LS       0.11E+00    0.3                    -1854.0433574038
    42 OT LS       0.93E-01    0.3                    -1854.0433838866
    43 OT CG       0.74E-01    0.6     0.00025707     -1854.0435111161 -5.05E-03
    44 OT LS       0.10E+00    0.3                    -1854.0471753262
    45 OT LS       0.79E-01    0.3                    -1854.0468298533
    46 OT CG       0.63E-01    0.6     0.00022108     -1854.0471905011 -3.68E-03
    47 OT LS       0.89E-01    0.3                    -1854.0501029802
    48 OT LS       0.97E-01    0.3                    -1854.0504721571
    49 OT CG       0.77E-01    0.6     0.00018939     -1854.0504939927 -3.30E-03
    50 OT LS       0.11E+00    0.3                    -1854.0528117071
    51 OT LS       0.96E-01    0.3                    -1854.0528650068
    52 OT CG       0.77E-01    0.6     0.00016535     -1854.0529029457 -2.41E-03
    53 OT LS       0.11E+00    0.3                    -1854.0546530190
    54 OT LS       0.95E-01    0.3                    -1854.0546887835
    55 OT CG       0.76E-01    0.6     0.00014576     -1854.0547196417 -1.82E-03
    56 OT LS       0.11E+00    0.3                    -1854.0560206512
    57 OT LS       0.89E-01    0.3                    -1854.0560007463
    58 OT CG       0.71E-01    0.6     0.00012942     -1854.0560500031 -1.33E-03
    59 OT LS       0.10E+00    0.3                    -1854.0570933348
    60 OT LS       0.95E-01    0.3                    -1854.0571570878
    61 OT CG       0.76E-01    0.6     0.00011855     -1854.0571612989 -1.11E-03
    62 OT LS       0.11E+00    0.3                    -1854.0580220385
    63 OT LS       0.89E-01    0.3                    -1854.0580106481
    64 OT CG       0.71E-01    0.6     0.00010518     -1854.0580415878 -8.80E-04
    65 OT LS       0.10E+00    0.3                    -1854.0587293649
    66 OT LS       0.95E-01    0.3                    -1854.0587715496
    67 OT CG       0.76E-01    0.6     0.00009300     -1854.0587735863 -7.32E-04
    68 OT LS       0.11E+00    0.3                    -1854.0593282709
    69 OT LS       0.96E-01    0.3                    -1854.0593465018
    70 OT CG       0.77E-01    0.6     0.00008037     -1854.0593538941 -5.80E-04
    71 OT LS       0.11E+00    0.3                    -1854.0597742326
    72 OT LS       0.98E-01    0.3                    -1854.0597909555
    73 OT CG       0.78E-01    0.6     0.00007516     -1854.0597931928 -4.39E-04
    74 OT LS       0.11E+00    0.3                    -1854.0601392554
    75 OT LS       0.90E-01    0.3                    -1854.0601283361
    76 OT CG       0.72E-01    0.6     0.00006610     -1854.0601466086 -3.53E-04
    77 OT LS       0.10E+00    0.3                    -1854.0604027634
    78 OT LS       0.87E-01    0.3                    -1854.0604039388
    79 OT CG       0.70E-01    0.6     0.00005917     -1854.0604105802 -2.64E-04
    80 OT LS       0.97E-01    0.3                    -1854.0606254103
    81 OT LS       0.98E-01    0.3                    -1854.0606448124
    82 OT CG       0.78E-01    0.6     0.00005242     -1854.0606458403 -2.35E-04
    83 OT LS       0.11E+00    0.3                    -1854.0608184371
    84 OT LS       0.94E-01    0.3                    -1854.0608189991
    85 OT CG       0.75E-01    0.6     0.00004600     -1854.0608246730 -1.79E-04
    86 OT LS       0.11E+00    0.3                    -1854.0609542273
    87 OT LS       0.89E-01    0.3                    -1854.0609531995
    88 OT CG       0.72E-01    0.6     0.00004072     -1854.0609579018 -1.33E-04
    89 OT LS       0.10E+00    0.3                    -1854.0610646419
    90 OT LS       0.10E+00    0.3                    -1854.0610749291
    91 OT CG       0.81E-01    0.6     0.00003707     -1854.0610763042 -1.18E-04
    92 OT LS       0.11E+00    0.3                    -1854.0611619641
    93 OT LS       0.91E-01    0.3                    -1854.0611571307
    94 OT CG       0.72E-01    0.6     0.00003423     -1854.0611637097 -8.74E-05
    95 OT LS       0.10E+00    0.3                    -1854.0612313561
    96 OT LS       0.87E-01    0.3                    -1854.0612313623
    97 OT CG       0.70E-01    0.6     0.00003016     -1854.0612343443 -7.06E-05
    98 OT LS       0.97E-01    0.3                    -1854.0612925727
    99 OT LS       0.10E+00    0.3                    -1854.0612993835
   100 OT CG       0.83E-01    0.6     0.00002697     -1854.0613005459 -6.62E-05
   101 OT LS       0.12E+00    0.3                    -1854.0613511094
   102 OT LS       0.97E-01    0.3                    -1854.0613502796
   103 OT CG       0.78E-01    0.6     0.00002538     -1854.0613524927 -5.19E-05
   104 OT LS       0.11E+00    0.3                    -1854.0613944001
   105 OT LS       0.93E-01    0.3                    -1854.0613944182
   106 OT CG       0.75E-01    0.6     0.00002353     -1854.0613961864 -4.37E-05
   107 OT LS       0.10E+00    0.3                    -1854.0614326979
   108 OT LS       0.11E+00    0.3                    -1854.0614364076
   109 OT CG       0.86E-01    0.6     0.00002282     -1854.0614369129 -4.07E-05
   110 OT LS       0.12E+00    0.3                    -1854.0614651362
   111 OT LS       0.88E-01    0.3                    -1854.0614614788
   112 OT CG       0.71E-01    0.6     0.00002030     -1854.0614662095 -2.93E-05
   113 OT LS       0.99E-01    0.3                    -1854.0614911940
   114 OT LS       0.77E-01    0.3                    -1854.0614893983
   115 OT CG       0.62E-01    0.6     0.00001581     -1854.0614902452 -2.40E-05
   116 OT LS       0.87E-01    0.3                    -1854.0615060935
   117 OT LS       0.17E+00    0.3                    -1854.0615105238
   118 OT CG       0.14E+00    0.6     0.00002827     -1854.0615069085 -1.67E-05
   119 OT LS       0.70E-01    0.3                    -1854.0613683642
   120 OT LS       0.18E-01    0.3                    -1854.0614845866
   121 OT CG       0.15E-01    1.9     0.00002964     -1854.0615098431 -2.93E-06
   122 OT LS       0.21E-01    0.3                    -1854.0615239808
   123 OT LS       0.35E-01    0.3                    -1854.0615275683
   124 OT CG       0.28E-01    0.6     0.00001196     -1854.0615344898 -2.46E-05
   125 OT LS       0.40E-01    0.3                    -1854.0615386297
   126 OT LS       0.60E-01    0.3                    -1854.0615395695
   127 OT CG       0.48E-01    0.7     0.00000895     -1854.0615413444 -6.85E-06

  *** SCF run converged in   127 steps ***


  Electronic density on regular grids:       -888.0008672008       -0.0008672008
  Core density on regular grids:              887.9999999570       -0.0000000430
  Total charge density on r-space grids:       -0.0008672439
  Total charge density g-space grids:          -0.0008672439

  Overlap energy of the core charge distribution:              42.73927701864653
  Self energy of the core charge distribution:              -5102.84296118906968
  Core Hamiltonian energy:                                   1691.80264627933502
  Hartree energy:                                            2018.04103896573770
  Exchange-correlation energy:                               -503.80154241906376

  Total energy:                                             -1854.06154134441454

  outer SCF iter =    2 RMS gradient =   0.90E-05 energy =      -1854.0615413444
  outer SCF loop converged in   2 iterations or  277 steps


 *******************************************************************************
 **                                                                           **
 **         ######## #######   #######   ######## #######  ########           **
 **            ##    ##     ## ##     ## ##       ##   ##     ##              **
 **            ##    ##     ## ##     ## ######   #######     ##              **
 **            ##    ##     ## ##     ## ##       ##          ##              **
 **            ##    #######   #######   ##       ##          ##              **
 **                                                                           **
 *******************************************************************************
 KERNEL|                                                                    FULL
 FUNCTIONAL| PBE:
 FUNCTIONAL| J.P.Perdew, K.Burke, M.Ernzerhof, Phys. Rev. Letter, vol. 77, n 18,
 FUNCTIONAL|  pp. 3865-3868, (1996){spin unpolarized}
 KERNEL| Spin symmetry of excitations                                    Singlet
 TDDFPT| Number of states calculated                                         100
 TDDFPT| Number of Davidson iterations                                        50
 TDDFPT| Davidson iteration convergence                                0.367E-05
 TDDFPT| Max. number of Krylov space vectors                                5000
 TDDFPT| Molecular Orbitals:        Spin       AOs       Occ      Virt     Total
 TDDFPT|                               1      3148       444      2704      3148

 -------------------------------------------------------------------------------
 -                            TDDFPT Initial Guess                             -
 -------------------------------------------------------------------------------
          State         Occupied      ->      Virtual          Excitation
          number         orbital              orbital          energy (eV)
 -------------------------------------------------------------------------------
             1              444                  445              0.07923
             2              444                  446              0.37631
             3              444                  447              0.50295
             4              444                  448              0.55816
             5              444                  449              0.57223
             6              443                  445              0.64302
             7              442                  445              0.66334
             8              444                  450              0.67120
             9              444                  451              0.79034
            10              444                  452              0.84693
            11              444                  453              0.87717
            12              441                  445              0.89292
            13              440                  445              0.93025
            14              444                  454              0.93949
            15              443                  446              0.94010
            16              442                  446              0.96043
            17              439                  445              0.96135
            18              444                  455              0.99749
            19              438                  445              1.03423
            20              437                  445              1.03884
            21              444                  456              1.05050
            22              444                  457              1.06440
            23              443                  447              1.06674
            24              442                  447              1.08707
            25              436                  445              1.09173
            26              443                  448              1.12195
            27              443                  449              1.13602
            28              442                  448              1.14227
            29              442                  449              1.15634
            30              444                  458              1.18201
            31              441                  446              1.19001
            32              440                  446              1.22733
            33              443                  450              1.23499
            34              444                  459              1.24057
            35              442                  450              1.25532
            36              439                  446              1.25843
            37              441                  447              1.31665
            38              438                  446              1.33131
            39              437                  446              1.33592
            40              440                  447              1.35397
            41              443                  451              1.35413
            42              441                  448              1.37185
            43              444                  460              1.37238
            44              442                  451              1.37446
            45              439                  447              1.38507
            46              441                  449              1.38592
            47              436                  446              1.38881
            48              440                  448              1.40918
            49              443                  452              1.41072
            50              440                  449              1.42325
            51              442                  452              1.43104
            52              439                  448              1.44028
            53              443                  453              1.44096
            54              439                  449              1.45435
            55              444                  461              1.45676
            56              438                  447              1.45795
            57              442                  453              1.46128
            58              437                  447              1.46256
            59              441                  450              1.48490
            60              443                  454              1.50328
            61              438                  448              1.51316
            62              436                  447              1.51545
            63              437                  448              1.51777
            64              440                  450              1.52222
            65              442                  454              1.52360
            66              438                  449              1.52723
            67              437                  449              1.53184
            68              439                  450              1.55332
            69              435                  445              1.55723
            70              443                  455              1.56128
            71              436                  448              1.57066
            72              434                  445              1.57321
            73              442                  455              1.58161
            74              436                  449              1.58473
            75              441                  451              1.60404
            76              443                  456              1.61429
            77              438                  450              1.62620
            78              444                  462              1.62744
            79              443                  457              1.62819
            80              437                  450              1.63081
            81              433                  445              1.63220
            82              442                  456              1.63461
            83              440                  451              1.64136
            84              442                  457              1.64851
            85              441                  452              1.66062
            86              439                  451              1.67247
            87              436                  450              1.68371
            88              444                  463              1.68489
            89              441                  453              1.69086
            90              444                  464              1.69299
            91              440                  452              1.69795
            92              440                  453              1.72819
            93              439                  452              1.72905
            94              432                  445              1.72949
            95              444                  465              1.73434
            96              438                  451              1.74535
            97              443                  458              1.74580
            98              431                  445              1.74711
            99              437                  451              1.74995
           100              441                  454              1.75318

      Number of active states:                                    1200576
 -------------------------------------------------------------------------------

 -------------------------------------------------------------------------------
 -                      TDDFPT WAVEFUNCTION OPTIMIZATION                       -
 -------------------------------------------------------------------------------

          Step            Time         Convergence           Conv. states
 -------------------------------------------------------------------------------
             1            60.6          8.2416E-02                      0
             2            58.9          7.9474E-02                      0
             3            60.5          1.4912E-03                      7
             4            60.7          1.7936E-04                     90
             5            45.2          2.4489E-06                    100
 ------------------------- Restart Davidson iterations -------------------------
             6            42.4          1.1613E-11                    100

 -------------------------------------------------------------------------------
 -  TDDFPT run converged in 6 iteration(s)
 -------------------------------------------------------------------------------

 R-TDDFPT states of multiplicity 1
 Transition dipoles calculated using velocity formulation

         State    Excitation        Transition dipole (a.u.)        Oscillator
         number   energy (eV)       x           y           z     strength (a.u.)
         ------------------------------------------------------------------------
 TDDFPT|      1       0.28064   8.6743E-02  1.0844E-01  2.5424E-01   5.77021E-04
 TDDFPT|      2       0.38550   2.6581E-01  1.0955E-01  4.1366E-01   2.39673E-03
 TDDFPT|      3       0.58548   2.9822E-01 -2.7202E-02 -1.1660E-01   1.48129E-03
 TDDFPT|      4       0.60003   2.9487E-02  6.6989E-02  4.5871E-01   3.17190E-03
 TDDFPT|      5       0.68621  -4.8002E-01 -2.6385E-01 -1.8861E+00   6.48527E-02
 TDDFPT|      6       0.72292   4.0795E-01 -1.3986E-01 -5.2113E-01   8.10389E-03
 TDDFPT|      7       0.73123  -5.2484E-01  2.9367E-01  7.2048E-01   1.57793E-02
 TDDFPT|      8       0.77929  -7.7194E-02 -3.1917E-01 -4.9629E-01   6.76119E-03
 TDDFPT|      9       0.88712   3.2887E-01  2.5823E-01  8.9498E-01   2.12085E-02
 TDDFPT|     10       0.94017   1.2455E-02  1.2516E-01 -1.5083E-01   8.88409E-04
 TDDFPT|     11       0.94720  -1.0577E-02 -9.9417E-02  4.5066E-01   4.94502E-03
 TDDFPT|     12       0.96114   7.3467E-02  1.5630E-01  3.8904E-02   7.38018E-04
 TDDFPT|     13       0.96292  -4.3177E-01  5.8914E-03 -3.5708E-01   7.40685E-03
 TDDFPT|     14       0.96637   5.9196E-02 -4.7708E-01  1.2505E+00   4.24937E-02
 TDDFPT|     15       0.99746   7.1390E-01 -3.7753E-02 -3.8292E-01   1.60725E-02
 TDDFPT|     16       1.04597  -2.0835E-01 -5.9602E-01  8.5834E-01   2.90956E-02
 TDDFPT|     17       1.04950  -1.2549E-01  4.2552E-01 -4.3402E-02   5.10901E-03
 TDDFPT|     18       1.06715  -6.6634E-01 -6.1973E-01  1.9365E-01   2.26301E-02
 TDDFPT|     19       1.10042   1.1657E-02  2.6429E-01 -3.1258E-01   4.52090E-03
 TDDFPT|     20       1.11423   2.7467E-01  2.9141E-01 -6.9112E-01   1.74164E-02
 TDDFPT|     21       1.12583  -4.9222E-01 -3.9258E-01  6.0600E-01   2.10627E-02
 TDDFPT|     22       1.13394  -3.7153E-01 -3.2287E-01  9.3257E-02   6.97233E-03
 TDDFPT|     23       1.13974  -1.2696E-01  3.4934E-01  1.3261E-01   4.34886E-03
 TDDFPT|     24       1.14397  -3.8269E-01 -3.5681E-01  4.4547E-02   7.72834E-03
 TDDFPT|     25       1.16006  -2.2763E-01 -1.6993E-01 -1.5167E-01   2.94709E-03
 TDDFPT|     26       1.16548   1.2936E-01 -1.6690E-01 -1.1576E-01   1.65585E-03
 TDDFPT|     27       1.19251  -5.6665E-02  4.1574E-03  2.5518E-01   1.99673E-03
 TDDFPT|     28       1.19792   5.3241E-02  1.3160E-01 -1.0519E+00   3.30642E-02
 TDDFPT|     29       1.22325  -1.4472E-01  8.8069E-02 -4.4914E-02   9.20563E-04
 TDDFPT|     30       1.22886   1.1388E-01 -2.3022E-01  5.7906E-01   1.20811E-02
 TDDFPT|     31       1.24670   4.4752E-01  9.2718E-02 -2.5161E-01   8.31347E-03
 TDDFPT|     32       1.25985  -7.0035E-02 -1.6267E-01  3.8763E-01   5.60583E-03
 TDDFPT|     33       1.28647  -8.7418E-01 -4.5605E-01  1.8486E+00   1.38343E-01
 TDDFPT|     34       1.29083  -1.0588E-01  2.3690E-01  6.8013E-01   1.67584E-02
 TDDFPT|     35       1.31855  -8.4508E-02  3.0605E-02  6.7348E-01   1.49134E-02
 TDDFPT|     36       1.33258   5.2450E-02 -7.3405E-02 -3.3979E-02   3.03426E-04
 TDDFPT|     37       1.33946  -3.4037E-02 -3.4913E-02 -4.4417E-02   1.42761E-04
 TDDFPT|     38       1.35598   1.7954E-01 -1.8767E-01  1.3346E-01   2.83264E-03
 TDDFPT|     39       1.35848  -2.9316E-01 -2.1473E-01  2.3187E-01   6.18435E-03
 TDDFPT|     40       1.37707  -6.1801E-02 -1.0406E-01  1.7753E-01   1.55756E-03
 TDDFPT|     41       1.37780  -1.0690E-01  1.4414E-02 -7.7729E-02   5.96686E-04
 TDDFPT|     42       1.38993   5.3538E-02  2.0007E-02 -7.1453E-02   2.85097E-04
 TDDFPT|     43       1.41009  -2.4926E-01 -1.6555E-02 -6.9441E-02   2.32242E-03
 TDDFPT|     44       1.41974  -5.1552E-01 -9.7436E-03 -2.0494E-01   1.07081E-02
 TDDFPT|     45       1.42887   6.3580E-02 -1.2318E-01  8.9951E-02   9.55912E-04
 TDDFPT|     46       1.43936   2.4831E-01  5.3541E-02  2.9227E-01   5.28750E-03
 TDDFPT|     47       1.44254   2.1178E-02  1.6222E-02  8.0161E-02   2.52248E-04
 TDDFPT|     48       1.44835  -1.3975E-01 -6.2173E-02 -2.1085E-01   2.40771E-03
 TDDFPT|     49       1.45482   8.0827E-02  1.2890E-01 -1.5002E-01   1.62720E-03
 TDDFPT|     50       1.46340  -1.2582E-01 -8.0017E-02  4.2656E-01   7.32049E-03
 TDDFPT|     51       1.46955  -1.2427E-01  3.7124E-02 -1.7213E-01   1.67238E-03
 TDDFPT|     52       1.47960   4.3991E-01  1.2881E-01 -5.0005E-01   1.66808E-02
 TDDFPT|     53       1.48651   9.8620E-02 -3.6579E-01  1.4541E+00   8.22309E-02
 TDDFPT|     54       1.50776   1.0492E-01 -1.4631E-01 -3.5806E-01   5.93335E-03
 TDDFPT|     55       1.50951   2.5687E-01 -4.9160E-02  7.8905E-01   2.55546E-02
 TDDFPT|     56       1.51747   1.3963E-01  1.2806E-01  2.8667E-01   4.38985E-03
 TDDFPT|     57       1.51944  -9.0538E-02 -6.1243E-02 -2.9728E-01   3.73470E-03
 TDDFPT|     58       1.52434  -3.8546E-02 -9.0307E-02 -1.1329E+00   4.82913E-02
 TDDFPT|     59       1.53558   2.2444E-01 -1.9794E-01  1.0769E+00   4.70026E-02
 TDDFPT|     60       1.53845   3.3265E-01 -3.6639E-01  1.7608E+00   1.26092E-01
 TDDFPT|     61       1.54760  -3.9389E-01  1.8266E-01 -5.1448E-01   1.71835E-02
 TDDFPT|     62       1.55422   1.8866E-01  2.6723E-02  2.1026E-01   3.06580E-03
 TDDFPT|     63       1.55729  -3.2496E-02  6.1807E-03 -2.3444E-02   6.27172E-05
 TDDFPT|     64       1.56553   6.5984E-01 -2.6244E-01  1.4915E-01   2.01942E-02
 TDDFPT|     65       1.57193   4.8334E-01 -1.2690E-01 -1.1737E-02   9.62235E-03
 TDDFPT|     66       1.57325  -1.5955E-02 -4.2711E-03 -8.6201E-02   2.96919E-04
 TDDFPT|     67       1.58087   3.8860E-01 -2.0593E-02  6.8014E-01   2.37819E-02
 TDDFPT|     68       1.58781   5.1149E-01 -2.5450E-01  4.7677E-01   2.15392E-02
 TDDFPT|     69       1.58945   4.4886E-01 -2.4655E-01  7.0799E-01   2.97316E-02
 TDDFPT|     70       1.59425   8.2936E-01 -2.8500E-01  2.1297E-02   3.00560E-02
 TDDFPT|     71       1.60655   1.1711E-02  3.9559E-02  5.2517E-01   1.09226E-02
 TDDFPT|     72       1.61505  -7.8952E-02  1.1802E-01  1.2862E-01   1.45238E-03
 TDDFPT|     73       1.61996   6.8128E-01 -1.5618E-01  3.5371E-01   2.43543E-02
 TDDFPT|     74       1.62451  -7.5022E-01  1.4729E-01 -2.6036E-01   2.59620E-02
 TDDFPT|     75       1.62915   1.2245E-01 -3.0744E-01  4.4598E-01   1.23097E-02
 TDDFPT|     76       1.63278  -7.3468E-02  4.5542E-03  3.0073E-02   2.52924E-04
 TDDFPT|     77       1.63887   1.4857E-01  1.0686E-01  1.0569E-01   1.79322E-03
 TDDFPT|     78       1.64094  -1.9545E-01 -2.9109E-01 -6.5740E-01   2.23170E-02
 TDDFPT|     79       1.64883   8.6992E-02  1.6410E-01  2.8993E-01   4.78910E-03
 TDDFPT|     80       1.66738  -2.5094E-01  1.5411E-01 -5.5925E-01   1.63190E-02
 TDDFPT|     81       1.67454   2.0946E-01 -2.4348E-01  2.3588E-01   6.51460E-03
 TDDFPT|     82       1.68062  -1.4046E-01 -1.2184E-03 -1.8758E-01   2.26112E-03
 TDDFPT|     83       1.68211   3.7022E-01  1.0017E-01 -3.2387E-01   1.03847E-02
 TDDFPT|     84       1.68871   4.9462E-01  2.2478E-01 -6.1803E-01   2.80151E-02
 TDDFPT|     85       1.69535  -5.3431E-01 -1.2810E-02  4.9158E-01   2.19016E-02
 TDDFPT|     86       1.69975   1.0175E-01  1.5055E-01 -7.1691E-02   1.58909E-03
 TDDFPT|     87       1.71283  -8.4406E-01 -2.8765E-01 -6.7081E-01   5.22518E-02
 TDDFPT|     88       1.72521   2.5778E-02 -1.1075E-01 -7.7939E-01   2.62217E-02
 TDDFPT|     89       1.72990   2.6111E-03  6.6412E-03  4.2301E-02   7.79936E-05
 TDDFPT|     90       1.73333  -7.2821E-03 -4.3256E-02  2.4628E-03   8.19681E-05
 TDDFPT|     91       1.73881   4.4503E-01  1.5930E-02  8.7821E-01   4.13034E-02
 TDDFPT|     92       1.74758   1.4886E-01  2.6607E-02  2.1385E-02   9.98614E-04
 TDDFPT|     93       1.75339   9.4392E-02  1.0493E-01  3.8128E-01   7.10060E-03
 TDDFPT|     94       1.75465   1.9175E-01 -1.6756E-01  5.5308E-01   1.59377E-02
 TDDFPT|     95       1.75941  -8.2776E-02 -2.1788E-01 -2.9658E-01   6.13321E-03
 TDDFPT|     96       1.76416  -2.8247E-01  8.4534E-03 -4.5262E-01   1.23061E-02
 TDDFPT|     97       1.76770   8.4697E-02 -2.2939E-01 -1.6511E-01   3.77020E-03
 TDDFPT|     98       1.77479  -4.3930E-01  2.3990E-02  1.5107E-01   9.40860E-03
 TDDFPT|     99       1.78137  -6.8537E-01 -3.6401E-01 -3.5219E-01   3.16967E-02
 TDDFPT|    100       1.79443   9.4131E-02 -3.3868E-02  4.2965E-01   8.55551E-03

 TDDFPT : CheckSum  =  0.520873E+00

 -------------------------------------------------------------------------------
 -                            Excitation analysis                              -
 -------------------------------------------------------------------------------
        State             Occupied              Virtual             Excitation
        number             orbital              orbital             amplitude
 -------------------------------------------------------------------------------
             1   0.28064 eV
                               444                  445               0.951522
                               443                  445              -0.158502
                               444                  448              -0.099212
                               444                  452               0.091501
                               442                  447               0.078186
                               441                  445              -0.072871
                               444                  460              -0.062101
                               444                  446              -0.056717
                               444                  454               0.055869
                               442                  445              -0.044894
                               444                  453               0.035600
                               440                  449               0.034494
                               444                  458              -0.033692
                               443                  452              -0.029901
                               440                  445              -0.025040
                               440                  447              -0.024575
                               444                  457              -0.024408
                               440                  456              -0.023886
                               442                  449               0.023684
                               437                  445              -0.023497
                               439                  445               0.023182
                               438                  445              -0.022644
                               436                  445              -0.021637
                               442                  450              -0.021358
                               441                  454              -0.021039
                               440                  453              -0.020794
                               444                  456               0.020446
                               444                  449               0.020266
                               443                  447              -0.019937
                               444                  459               0.019680
                               440                  450              -0.019207
                               439                  449               0.017953
                               441                  457               0.017858
                               426                  447              -0.017022
                               425                  445              -0.016184
                               424                  449               0.015911
                               441                  455               0.015667
                               444                  447              -0.014839
                               440                  452               0.013985
                               441                  449              -0.013952
                               439                  457              -0.013884
                               440                  448               0.013851
                               439                  450              -0.012887
                               407                  460               0.012833
                               437                  449               0.012240
                               437                  456              -0.012122
                               443                  449              -0.011889
                               425                  460              -0.011765
                               428                  452              -0.011707
                               440                  454              -0.011187
                               442                  473               0.011149
                               426                  459               0.011112
                               439                  453              -0.010920
                               441                  453               0.010845
                               441                  446              -0.010606
                               444                  481               0.010477
                               443                  453              -0.010413
                               424                  450              -0.010351
                               406                  447              -0.010111
             2   0.38550 eV
                               444                  446              -0.995365
                               444                  447               0.061774
                               444                  445              -0.049990
                               444                  449              -0.028401
                               444                  452              -0.021690
                               443                  445               0.018051
                               444                  453              -0.012284
                               444                  451               0.010023
             3   0.58548 eV
                               444                  448               0.889671
                               444                  447               0.293343
                               444                  449               0.293209
                               444                  452               0.110610
                               444                  450               0.087091
                               443                  445              -0.075278
                               444                  445               0.061306
                               444                  456              -0.027386
                               442                  445               0.021782
                               444                  457              -0.020949
                               444                  451               0.018573
                               441                  445              -0.017916
                               444                  460              -0.016312
                               443                  447              -0.013842
                               441                  449              -0.013220
                               444                  454               0.013074
                               440                  445               0.012018
                               439                  445               0.011986
                               444                  453               0.011599
                               444                  458              -0.011598
                               444                  459               0.010617
                               437                  445              -0.010478
             4   0.60003 eV
                               444                  449              -0.905436
                               444                  448               0.350220
                               444                  450              -0.143419
                               444                  447              -0.126581
                               442                  445              -0.077993
                               444                  453               0.041854
                               444                  445               0.039146
                               444                  456               0.038473
                               444                  452               0.037098
                               444                  451              -0.036142
                               444                  457               0.030793
                               440                  445              -0.028902
                               441                  449               0.018150
                               443                  447               0.017816
                               444                  455               0.017123
                               444                  460              -0.014917
                               442                  447               0.014798
                               437                  445              -0.012661
                               440                  456              -0.012363
                               444                  446               0.012321
                               440                  454              -0.011351
                               444                  454               0.011237
                               444                  458              -0.011094
                               438                  445              -0.011084
                               441                  450              -0.010595
             5   0.68621 eV
                               444                  450              -0.942054
                               442                  445               0.244516
                               444                  447               0.133516
                               443                  445              -0.126131
                               444                  449               0.103465
                               444                  455              -0.032284
                               440                  445               0.030213
                               444                  452               0.029878
                               444                  456              -0.028161
                               439                  445               0.018356
                               443                  449               0.018347
                               444                  459              -0.016255
                               441                  449              -0.015607
                               444                  454              -0.013580
                               437                  445               0.012513
                               444                  451              -0.012190
                               444                  458              -0.011390
                               444                  457              -0.010722
                               443                  450              -0.010050
                               443                  447               0.010034
             6   0.72292 eV
                               443                  445              -0.884032
                               442                  445               0.266222
                               444                  450               0.185326
                               443                  447               0.150714
                               442                  447              -0.132902
                               443                  449               0.094652
                               444                  445              -0.091010
                               443                  452               0.077203
                               442                  449              -0.070636
                               444                  449              -0.069695
                               441                  445               0.063097
                               444                  452              -0.059176
                               443                  450              -0.058134
                               444                  451              -0.057625
                               444                  448              -0.055652
                               444                  454              -0.054495
                               442                  450               0.045328
                               444                  457               0.042964
                               444                  455               0.036053
                               444                  453              -0.035155
                               436                  445               0.033693
                               444                  458               0.028394
                               439                  445              -0.028073
                               444                  460               0.027854
                               439                  447               0.022203
                               442                  452              -0.022141
                               438                  445               0.019222
                               443                  454               0.019090
                               443                  453               0.018178
                               440                  447               0.017627
                               441                  449               0.016812
                               440                  445               0.015381
                               443                  457              -0.014748
                               443                  446               0.014377
                               439                  453               0.012842
                               443                  461              -0.012663
                               441                  454               0.012232
                               437                  445               0.012012
                               440                  449              -0.011744
                               441                  453              -0.010859
                               441                  455              -0.010529
                               441                  446               0.010118
                               425                  445               0.010003
             7   0.73123 eV
                               442                  445              -0.881865
                               443                  445              -0.291809
                               444                  450              -0.184106
                               442                  447              -0.171155
                               443                  447              -0.107542
                               444                  451               0.103804
                               444                  449               0.094780
                               442                  449              -0.085418
                               444                  445              -0.057377
                               443                  449              -0.057267
                               442                  450               0.054365
                               444                  454              -0.053620
                               442                  452               0.052848
                               444                  452              -0.045439
                               441                  445               0.042481
                               444                  456              -0.042422
                               443                  450               0.036460
                               438                  445               0.035744
                               444                  447              -0.032895
                               442                  453               0.030781
                               444                  459              -0.029670
                               443                  452               0.019773
                               440                  447               0.019237
                               444                  455              -0.018834
                               442                  446               0.018176
                               442                  454               0.016796
                               442                  456               0.016606
                               443                  453               0.014452
                               442                  448               0.014211
                               444                  460               0.014198
                               437                  447               0.013977
                               440                  445               0.011474
                               438                  447              -0.011471
                               442                  461              -0.011076
                               438                  449              -0.010996
                               437                  445               0.010845
                               442                  457              -0.010719
                               443                  446               0.010632
                               440                  454               0.010433
                               439                  445              -0.010277
                               444                  446              -0.010056
             8   0.77929 eV
                               444                  451              -0.884702
                               444                  447               0.348154
                               444                  453              -0.193248
                               442                  445              -0.124478
                               444                  452               0.096924
                               444                  448              -0.090161
                               444                  449              -0.057642
                               440                  445               0.057108
                               443                  447              -0.052714
                               444                  456              -0.049133
                               444                  455              -0.031478
                               444                  457              -0.031319
                               444                  450               0.029109
                               443                  445               0.028702
                               439                  445               0.027929
                               441                  447               0.027230
                               442                  447              -0.026008
                               438                  445               0.026006
                               443                  449              -0.026001
                               437                  445               0.021881
                               441                  445              -0.018807
                               440                  447               0.017433
                               436                  447              -0.017266
                               440                  452              -0.017047
                               442                  452               0.016431
                               444                  446               0.015509
                               438                  447              -0.015358
                               443                  450               0.014548
                               444                  471               0.013888
                               436                  445              -0.012970
                               431                  448              -0.012290
                               441                  453               0.012112
                               444                  474              -0.011610
                               442                  446               0.011319
                               439                  447              -0.010769
                               440                  446               0.010121
             9   0.88712 eV
                               444                  453               0.815676
                               444                  452              -0.402064
                               444                  451              -0.264542
                               444                  456              -0.176197
                               444                  457              -0.135550
                               444                  455               0.118158
                               444                  454               0.103390
                               444                  447              -0.096451
                               444                  459               0.071600
                               444                  449               0.058662
                               444                  458               0.050552
                               440                  445              -0.048286
                               444                  448               0.047609
                               439                  445              -0.024410
                               444                  450              -0.020561
                               438                  445               0.017347
                               443                  447               0.016279
            10   0.94017 eV
                               443                  446               0.901703
                               441                  445              -0.400659
                               444                  454              -0.108252
                               439                  445               0.082146
                               444                  452              -0.037400
                               438                  445               0.029929
                               440                  449              -0.023698
                               441                  449               0.023183
                               436                  445               0.022592
                               440                  447              -0.022255
                               441                  447               0.020221
                               444                  456              -0.015263
                               444                  447               0.014514
                               440                  450               0.014187
                               441                  452               0.014032
                               441                  450              -0.013876
                               442                  447              -0.013674
                               444                  445              -0.011657
                               442                  446              -0.011541
                               444                  457               0.010595
            11   0.94720 eV
                               441                  445               0.739003
                               444                  454               0.454499
                               443                  446               0.417488
                               439                  445              -0.151937
                               444                  452               0.090679
                               438                  445              -0.085030
                               441                  449              -0.054823
                               440                  449               0.054294
                               436                  445              -0.053966
                               442                  447               0.049521
                               440                  447               0.048836
                               441                  447              -0.044698
                               444                  447              -0.044456
                               444                  456               0.035160
                               440                  445               0.034840
                               441                  452              -0.032040
                               443                  447              -0.031176
                               444                  453              -0.030629
                               440                  450              -0.030514
                               441                  450               0.030386
                               442                  446               0.029340
                               444                  451              -0.028629
                               444                  449               0.023809
                               444                  460               0.022014
                               444                  445               0.019142
[...]
 flops    32 x    32 x    32          39639515136       0.0%    100.0%      0.0%
 flops   341 x    32 x    74          39889907200       0.0%    100.0%      0.0%
 flops   438 x    32 x    85          41197228800       0.0%    100.0%      0.0%
 flops     6 x    17 x    28          41536293120       0.0%    100.0%      0.0%
 flops    17 x     6 x    28          41536293120       0.0%    100.0%      0.0%
 flops   366 x    32 x    74          42814387200       0.0%    100.0%      0.0%
 flops   456 x    32 x    85          42890265600       0.0%    100.0%      0.0%
 flops   438 x    32 x    63          43620595200       0.0%    100.0%      0.0%
 flops   386 x    32 x    74          45153971200       0.0%    100.0%      0.0%
 flops   456 x    32 x    63          45413222400       0.0%    100.0%      0.0%
 flops   438 x    32 x    74          51236889600       0.0%    100.0%      0.0%
 flops   456 x    32 x    74          53342515200       0.0%    100.0%      0.0%
 flops    64 x    32 x    85          70715473920       0.0%    100.0%      0.0%
 flops    64 x    32 x    63          74875207680       0.0%    100.0%      0.0%
 flops   417 x    32 x    85          78444038400       0.0%    100.0%      0.0%
 flops     6 x     6 x    32          81012372480       0.0%    100.0%      0.0%
 flops   417 x    32 x    63          83058393600       0.0%    100.0%      0.0%
 flops    64 x    32 x    74          87948656640       0.0%    100.0%      0.0%
 flops   327 x    32 x    32          94277793792       0.0%    100.0%      0.0%
 flops   417 x    32 x    74          97560652800       0.0%    100.0%      0.0%
 flops   341 x    32 x    32          98314151936       0.0%    100.0%      0.0%
 flops   366 x    32 x    32         105521934336       0.0%    100.0%      0.0%
 flops    64 x    32 x    32         105705373696       0.0%    100.0%      0.0%
 flops   386 x    32 x    32         111288160256       0.0%    100.0%      0.0%
 flops   438 x    32 x    32         126280347648       0.0%    100.0%      0.0%
 flops   456 x    32 x    32         131469950976       0.0%    100.0%      0.0%
 flops     6 x    28 x    17         151081943040       0.0%    100.0%      0.0%
 flops    17 x    28 x     6         151081943040       0.0%    100.0%      0.0%
 flops   417 x    32 x    32         240451620864       0.0%    100.0%      0.0%
 flops     6 x    32 x     6         291232972800       0.0%    100.0%      0.0%
 flops    17 x    17 x    28         323636950560       0.0%    100.0%      0.0%
 flops     6 x    17 x    32         617110640640       0.0%    100.0%      0.0%
 flops    17 x     6 x    32         617110640640       0.0%    100.0%      0.0%
 flops    17 x    28 x    17        1170045714432       0.0%    100.0%      0.0%
 flops     6 x    32 x    17        2255437578240       0.0%    100.0%      0.0%
 flops    17 x    32 x     6        2255437578240       0.0%    100.0%      0.0%
 flops    17 x    17 x    32        4808320408320       0.0%    100.0%      0.0%
 flops    17 x    32 x    17       17467111022592       0.0%    100.0%      0.0%
 flops inhomo. stacks               1499116854528     100.0%      0.0%      0.0%
 flops total                        34.515297E+12       4.3%     95.7%      0.0%
 flops max/rank                    591.745927E+09       4.9%     95.1%      0.0%
 matmuls inhomo. stacks                   1424192     100.0%      0.0%      0.0%
 matmuls total                         2425060736       0.1%     99.9%      0.0%
 number of processed stacks              67164208       2.1%     97.9%      0.0%
 average stack size                                     1.0      36.9       0.0
 marketing flops                    40.382616E+12
 -------------------------------------------------------------------------------
 # multiplications                           6946
 max memory usage/rank               1.010319E+09
 # max total images/rank                       11
 # max 3D layers                                1
 # MPI messages exchanged                45843600
 MPI messages size (bytes):
  total size                         5.682991E+12
  min size                           0.000000E+00
  max size                         655.248000E+03
  average size                     123.964773E+03
 MPI breakdown and total messages size (bytes):
             size <=      128            20101116                        0
       128 < size <=     8192             1191372               9586217472
      8192 < size <=    32768             7842660             157607899776
     32768 < size <=   131072             3343884             178179147264
    131072 < size <=  4194304            13364568            5337936471168
   4194304 < size <= 16777216                   0                        0
  16777216 < size                               0                        0
 -------------------------------------------------------------------------------

 *** WARNING in dbcsr_mm.F:291 :: Using a non-square number of MPI ranks ***
 *** might lead to poor performance. Used ranks: 88 Suggested: 81 169    ***

 -------------------------------------------------------------------------------
 -                                                                             -
 -                      DBCSR MESSAGE PASSING PERFORMANCE                      -
 -                                                                             -
 -------------------------------------------------------------------------------
 ROUTINE             CALLS      AVE VOLUME [Bytes]
 MP_Bcast              125                     12.
 MP_Allreduce        30817                     40.
 MP_Alltoall         76878                  77865.
 MP_ISend          1131946                  60906.
 MP_IRecv          1130414                  60102.
 -------------------------------------------------------------------------------

 -------------------------------------------------------------------------------
 -                                                                             -
 -                                DBM STATISTICS                               -
 -                                                                             -
 -------------------------------------------------------------------------------
    M  x    N  x    K                                          COUNT     PERCENT
 -------------------------------------------------------------------------------

 -------------------------------------------------------------------------------
 -                                                                             -
 -                                GRID STATISTICS                              -
 -                                                                             -
 -------------------------------------------------------------------------------
 LP    KERNEL             BACKEND                              COUNT     PERCENT
 2     collocate general  CPU                              265236492      31.36%
 2     integrate general  CPU                              209111364      24.73%
 1     collocate general  CPU                              126454698      14.95%
 1     integrate general  CPU                               99696366      11.79%
 3     collocate general  CPU                               60074376       7.10%
 3     integrate general  CPU                               47362392       5.60%
 0     collocate general  CPU                               18471680       2.18%
 0     integrate general  CPU                               14547456       1.72%
 4     collocate general  CPU                                2652822       0.31%
 4     integrate general  CPU                                2091474       0.25%
 -------------------------------------------------------------------------------

 MEMORY| Estimated peak process memory [MiB]                                 964

 -------------------------------------------------------------------------------
 -                                                                             -
 -                         MESSAGE PASSING PERFORMANCE                         -
 -                                                                             -
 -------------------------------------------------------------------------------

 ROUTINE             CALLS      AVE VOLUME [Bytes]
 MP_Group                4
 MP_Bcast            18444                  48060.
 MP_Allreduce       184397                    162.
 MP_Sync               294
 MP_Alltoall         16427                1959383.
 MP_SendRecv        152946                  16064.
 MP_ISendRecv       120582                  16064.
 MP_Wait            186377
 MP_comm_split         290
 MP_ISend            44028                 160995.
 MP_IRecv            53216                 133313.
 -------------------------------------------------------------------------------


 -------------------------------------------------------------------------------
 -                                                                             -
 -                           R E F E R E N C E S                               -
 -                                                                             -
 -------------------------------------------------------------------------------

 CP2K version 2023.2, the CP2K developers group (2023).
 CP2K is freely available from https://www.cp2k.org/ .

 Kuehne,Thomas D.; Iannuzzi,Marcella; Del Ben,Mauro;
 Rybkin,Vladimir V.; Seewald,Patrick; Stein,Frederick; Laino,Teodoro;
 Khaliullin,Rustam Z.; Schuett,Ole; Schiffmann,Florian; Golze,Dorothea;
 Wilhelm,Jan; Chulkov,Sergey; Bani-Hashemian,Mohammad Hossein;
 Weber,Valery; Borstnik,Urban; Taillefumier,Mathieu;
 Jakobovits,Alice Shoshana; Lazzaro,Alfio; Pabst,Hans; Mueller,Tiziano;
 Schade,Robert; Guidon,Manuel; Andermatt,Samuel; Holmberg,Nico;
 Schenter,Gregory K.; Hehn,Anna; Bussy,Augustin; Belleflamme,Fabian;
 Tabacchi,Gloria; Gloess,Andreas; Lass,Michael; Bethune,Iain;
 Mundy,Christopher J.; Plessl,Christian; Watkins,Matt;
 VandeVondele,Joost; Krack,Matthias; Hutter,Juerg.
 The Journal of Chemical Physics, 152 (19), (2020).
 CP2K: An electronic structure and molecular dynamics software package -
 Quickstep: Efficient and accurate electronic structure calculations.
 https://doi.org/10.1063/5.0007045

 Schuett, Ole; Messmer, Peter; Hutter, Juerg; VandeVondele, Joost.
 Electronic Structure Calculations on Graphics Processing Units, John
 Wiley & Sons, Ltd, 173-190 (2016).
 GPU-Accelerated Sparse Matrix-Matrix Multiplication for
 Linear Scaling Density Functional Theory.
 https://doi.org/10.1002/9781118670712.ch8

 Heinecke, A; Henry, G; Hutchinson, M; Pabst, H.
 Proceedings of Intl. Supercomputing Conference, 981-991 (2016).
 LIBXSMM: Accelerating Small Matrix Multiplications
 by Runtime Code Generation.
 https://doi.org/10.1109/SC.2016.83

 Borstnik, U; VandeVondele, J; Weber, V; Hutter, J.
 PARALLEL COMPUTING, 40 (5-6), 47-58 (2014).
 Sparse matrix multiplication: The distributed block-compressed sparse
 row library.
 https://doi.org/10.1016/j.parco.2014.03.012

 Hutter, J; Iannuzzi, M; Schiffmann, F; VandeVondele, J.
 WIREs Comput Mol Sci., 4 (1), 15-25 (2014).
 CP2K: atomistic simulations of condensed matter systems.
 https://doi.org/10.1002/wcms.1159

 Krack, M.
 THEORETICAL CHEMISTRY ACCOUNTS, 114 (1-3), 145-152 (2005).
 Pseudopotentials for H to Kr optimized for gradient-corrected
 exchange-correlation functionals.
 https://doi.org/10.1007/s00214-005-0655-y

 VandeVondele, J; Krack, M; Mohamed, F; Parrinello, M; Chassaing, T;
 Hutter, J. COMPUTER PHYSICS COMMUNICATIONS, 167 (2), 103-128 (2005).
 QUICKSTEP: Fast and accurate density functional calculations using a
 mixed Gaussian and plane waves approach.
 https://doi.org/10.1016/j.cpc.2004.12.014

 Frigo, M; Johnson, SG.
 PROCEEDINGS OF THE IEEE, 93 (2), 216-231 (2005).
 The design and implementation of FFTW3.
 https://doi.org/10.1109/JPROC.2004.840301

 Iannuzzi, M; Chassaing, T; Wallman, T; Hutter, J.
 CHIMIA, 59 (7-8), 499-503 (2005).
 Ground and excited state density functional calculations with the
 Gaussian and augmented-plane-wave method.
 https://doi.org/10.2533/000942905777676164

 VandeVondele, J; Hutter, J.
 JOURNAL OF CHEMICAL PHYSICS, 118 (10), 4365-4369 (2003).
 An efficient orbital transformation method for electronic structure
 calculations.
 https://doi.org/10.1063/1.1543154

 Hartwigsen, C; Goedecker, S; Hutter, J.
 PHYSICAL REVIEW B, 58 (7), 3641-3662 (1998).
 Relativistic separable dual-space Gaussian pseudopotentials from H to Rn.
 https://doi.org/10.1103/PhysRevB.58.3641

 Lippert, G; Hutter, J; Parrinello, M.
 MOLECULAR PHYSICS, 92 (3), 477-487 (1997).
 A hybrid Gaussian and plane wave density functional scheme.
 https://doi.org/10.1080/002689797170220

 Perdew, JP; Burke, K; Ernzerhof, M.
 PHYSICAL REVIEW LETTERS, 77 (18), 3865-3868 (1996).
 Generalized gradient approximation made simple.
 https://doi.org/10.1103/PhysRevLett.77.3865

 Goedecker, S; Teter, M; Hutter, J.
 PHYSICAL REVIEW B, 54 (3), 1703-1710 (1996).
 Separable dual-space Gaussian pseudopotentials.
 https://doi.org/10.1103/PhysRevB.54.1703


 -------------------------------------------------------------------------------
 -                                                                             -
 -                                T I M I N G                                  -
 -                                                                             -
 -------------------------------------------------------------------------------
 SUBROUTINE                       CALLS  ASD         SELF TIME        TOTAL TIME
                                MAXIMUM       AVERAGE  MAXIMUM  AVERAGE  MAXIMUM
 CP2K                                 1  1.0    0.109    0.120  470.554  470.555
 qs_energies                          1  2.0    0.014    0.015  470.099  470.110
 qs_energies_properties               1  3.0    0.000    0.000  353.823  353.845
 tddfpt                               1  4.0    0.000    0.009  353.823  353.845
 tddfpt_energies                      1  5.0    0.005    0.006  351.350  351.360
 tddfpt_davidson_solver               2  6.0    0.004    0.006  339.661  339.661
 tddfpt_compute_Aop_evects            6  7.0    0.000    0.000  260.783  260.814
 fhxc_kernel                          6  8.0    0.022    0.026  238.232  238.263
 qs_rho_update_rho_low              879  7.7    0.004    0.007  134.342  135.754
 calculate_rho_elec                 879  8.7    0.152    0.158  134.338  135.749
 grid_collocate_task_list           879  9.7  108.764  116.069  108.764  116.069
 dbcsr_multiply_generic            6946 10.0    0.294    0.388  109.077  115.396
 scf_env_do_scf                       1  3.0    0.004    0.005  114.622  114.623
 scf_env_do_scf_inner_loop          277  4.0    0.008    0.084  110.238  110.250
 integrate_v_rspace                 693  9.0    0.018    0.024  109.201  109.457
 multiply_cannon                   6946 11.0    0.660    0.902   89.437   96.919
 grid_integrate_task_list           693 10.0   90.145   94.507   90.145   94.507
 multiply_cannon_loop              6946 12.0    1.657    2.215   85.093   92.792
 mp_waitall_1                    966681 14.0   72.140   84.131   72.140   84.131
 cp_dbcsr_sm_fm_multiply           2314  8.5    0.044    0.053   81.132   81.264
 multiply_cannon_metrocomm3      305624 13.0    0.269    0.319   66.463   78.691
 cp_dbcsr_sm_fm_multiply_core      2314  9.5    0.004    0.007   67.394   72.945
 qs_scf_new_mos                     277  5.0    0.001    0.002   42.530   42.898
 qs_scf_loop_do_ot                  277  6.0    0.001    0.001   42.528   42.897
 ot_scf_mini                        277  7.0    0.004    0.006   40.346   40.553
 tddfpt_orthonormalize_psi1_psi       7  6.9    0.114    0.199   39.415   39.416
 pw_transfer                      15022 11.1    0.415    0.448   33.861   34.026
 fft_wrap_pw1pw2                  13268 12.2    0.032    0.038   33.357   33.542
 fft_wrap_pw1pw2_200               8552 13.5    2.831    3.563   30.373   30.746
 tddfpt_compute_residual_vects        4  7.0    0.027    0.031   27.520   29.856
 parallel_gemm_fm                  2020  7.9    0.002    0.002   27.723   29.178
 parallel_gemm_fm_cosma            2020  8.9   27.721   29.177   27.721   29.177
 fft3d_ps                         13268 14.2   10.788   11.579   27.158   28.346
 rs_pw_transfer                    6289 10.8    0.032    0.039   22.510   26.777
 qs_ks_update_qs_env                279  5.0    0.002    0.002   26.005   26.173
 rebuild_ks_matrix                  277  6.0    0.001    0.001   25.882   26.052
 qs_ks_build_kohn_sham_matrix       277  7.0    0.029    0.034   25.881   26.051
 density_rs2pw                      879  9.7    0.020    0.023   21.619   25.917
 multiply_cannon_multrec         305624 13.0   14.032   23.593   14.074   23.632
 tddfpt_apply_energy_diff             6  8.0    0.007    0.008   22.551   22.552
 xc_pw_derive                      4713 11.0    0.009    0.011   19.673   20.174
 tddfpt_apply_xc_analytic           600  9.0    0.080    0.086   18.037   18.145
 qs_ot_get_p                        279  8.0    0.001    0.002   17.219   17.887
 mp_waitany                       44028 12.8   13.628   17.781   13.628   17.781
 mp_alltoall_z22v                 13268 16.2   14.447   17.715   14.447   17.715
 copy_dbcsr_to_fm                  2625  9.6    0.024    0.043   11.499   16.933
 mp_alltoall_i22                   9748 11.7   11.044   16.779   11.044   16.779
 cp_fm_trace_a1b1t1_aa           135350  8.0    3.001    3.626   11.712   15.737
 mp_sum_dv                       170536  9.8    9.556   14.776    9.556   14.776
 cp_fm_syevd                        290 10.9    0.001    0.002   14.546   14.559
 sum_up_and_integrate                93  8.0    0.013    0.018   14.536   14.551
 cp_fm_redistribute_end             290 11.9    7.219   14.243    7.281   14.346
 make_m2s                         13892 11.0    0.219    0.262   13.356   14.279
 cp_fm_syevd_base                   290 11.9    7.055   14.138    7.055   14.138
 dbcsr_desymmetrize_deep           2625 10.6    0.099    0.233    8.711   13.857
 mp_alltoall_d11v                 30816 11.9    9.565   13.459    9.565   13.459
 potential_pw2rs                    693 10.0    0.022    0.025   12.880   13.126
 qs_ot_p2m_diag                     277  9.0    0.064    0.116   13.048   13.126
 make_images                      13892 12.0    0.956    1.444   11.853   12.853
 tddfpt_orthogonalize_psi1_psi0       7  6.9    0.001    0.001   11.392   12.778
 ot_mini                            277  8.0    0.001    0.001   12.550   12.768
 xc_pw_divergence                   693 10.9    0.004    0.005   11.793   12.301
 cp_dbcsr_syevd                     281 10.0    0.015    0.016   11.944   11.958
 rs_pw_transfer_RS2PW_200           880 11.7    0.450    0.579    6.267   11.599
 cp_dbcsr_plus_fm_fm_t_native       601  9.0    0.006    0.008   10.881   11.515
 xc_calc_2nd_deriv_analytical       600 10.0    0.390    0.433   10.739   10.811
 cp_fm_scale_and_add             296350  8.0    7.981   10.183    7.981   10.183
 x_to_yz                           6285 15.0    0.960    1.376    8.766    9.574
 rs_gather_matrices                 693 10.0    0.424    0.517    6.158    9.513
 -------------------------------------------------------------------------------

 The number of warnings for this run is : 5

 -------------------------------------------------------------------------------
  **** **** ******  **  PROGRAM ENDED AT                 2023-12-23 14:31:51.637
 ***** ** ***  *** **   PROGRAM RAN ON                              0970b987b257
 **    ****   ******    PROGRAM RAN BY                                 <unknown>
 ***** **    ** ** **   PROGRAM PROCESS ID                                   538
  **** **  *******  **  PROGRAM STOPPED IN                                  /mnt
