 DBCSR| CPU Multiplication driver                                           XSMM (U)
 DBCSR| Multrec recursion limit                                              512 (U)
 DBCSR| Multiplication stack size                                           1000 (D)
 DBCSR| Maximum elements for images                                    UNLIMITED (U)
 DBCSR| Multiplicative factor virtual images                                   1 (U)
 DBCSR| Use multiplication densification                                       T (D)
 DBCSR| Multiplication size stacks                                             3 (U)
 DBCSR| Use memory pool for CPU allocation                                     F (U)
 DBCSR| Number of 3D layers                                               SINGLE (U)
 DBCSR| Use MPI memory allocation                                              F (U)
 DBCSR| Use RMA algorithm                                                      F (U)
 DBCSR| Use Communication thread                                               T (U)
 DBCSR| Communication thread load                                             83 (D)
 DBCSR| MPI: My process id                                                     0
 DBCSR| MPI: Number of processes                                              90
 DBCSR| OMP: Current number of threads                                         2
 DBCSR| OMP: Max number of threads                                             2
 DBCSR| Split modifier for TAS multiplication algorithm                  1.0E+00 (U)


  **** **** ******  **  PROGRAM STARTED AT               2024-03-04 07:17:08.045
 ***** ** ***  *** **   PROGRAM STARTED ON                          f6b448195612
 **    ****   ******    PROGRAM STARTED BY                             <unknown>
 ***** **    ** ** **   PROGRAM PROCESS ID                                   538
  **** **  *******  **  PROGRAM STARTED IN                                  /mnt

 CP2K| version string:                                       CP2K version 2023.2
 CP2K| source code revision number:                                  git:65cca6c
 CP2K| cp2kflags: omp libint fftw3 libxc pexsi elpa parallel scalapack cosma qui
 CP2K|            p xsmm plumed2 spglib sirius libvori libbqb libtorch libvdwxc
 CP2K| is freely available from                            https://www.cp2k.org/
 CP2K| Program compiled at                          Wed Oct 18 11:40:41 UTC 2023
 CP2K| Program compiled on                                          633bb7bf566f
 CP2K| Program compiled for                                                local
 CP2K| Data directory path                                        /opt/cp2k/data
 CP2K| Input file name                                             4amp34_geo.in

 GLOBAL| Force Environment number                                              1
 GLOBAL| Basis set file name                                      GTH_BASIS_SETS
 GLOBAL| Potential file name                                           POTENTIAL
 GLOBAL| MM Potential file name                                     MM_POTENTIAL
 GLOBAL| Coordinate file name                                      __STD_INPUT__
 GLOBAL| Method name                                                        CP2K
 GLOBAL| Project name                                                  4amp34geo
 GLOBAL| Run type                                                        GEO_OPT
 GLOBAL| FFT library                                                       FFTW3
 GLOBAL| Diagonalization library                                       ScaLAPACK
 GLOBAL| DGEMM library                                                      BLAS
 GLOBAL| Orthonormality check for eigenvectors                          DISABLED
 GLOBAL| Matrix multiplication library                                     COSMA
 GLOBAL| All-to-all communication in single precision                          F
 GLOBAL| FFTs using library dependent lengths                                  F
 GLOBAL| Grid backend                                                       AUTO
 GLOBAL| Global print level                                               MEDIUM
 GLOBAL| MPI I/O enabled                                                       T
 GLOBAL| Total number of message passing processes                            90
 GLOBAL| Number of threads for this process                                    2
 GLOBAL| This output is from process                                           0
 GLOBAL| Stack size for threads created by OpenMP (OMP_STACKSIZE)            16M
 GLOBAL| CPU model name                                            AMD EPYC 9B14
 GLOBAL| CPUID                                                              1003
 GLOBAL| Compiled for CPUID                                                    0

 *** HINT in environment.F:904 :: The compiler target flags (generic) used ***
 *** to build this binary cannot exploit all extensions of this CPU model  ***
 *** (x86_avx512). Consider compiler target flags as part of FCFLAGS and   ***
 *** CFLAGS (ARCH file).                                                   ***


 MEMORY| system memory details [Kb]
 MEMORY|                        rank 0           min           max       average
 MEMORY| MemTotal            365023400     365023400     365023400     365023400
 MEMORY| MemFree             351438724     351438724     351438724     351438724
 MEMORY| Buffers                 19528         19528         19528         19528
 MEMORY| Cached                 860416        860416        860416        860416
 MEMORY| Slab                   387516        387516        387516        387516
 MEMORY| SReclaimable            81668         81668         81668         81668
 MEMORY| MemLikelyFree       352400336     352400336     352400336     352400336


 *** Fundamental physical constants (SI units) ***

 *** Literature: B. J. Mohr and B. N. Taylor,
 ***             CODATA recommended values of the fundamental physical
 ***             constants: 2006, Web Version 5.1
 ***             http://physics.nist.gov/constants

 Speed of light in vacuum [m/s]                             2.99792458000000E+08
 Magnetic constant or permeability of vacuum [N/A**2]       1.25663706143592E-06
 Electric constant or permittivity of vacuum [F/m]          8.85418781762039E-12
 Planck constant (h) [J*s]                                  6.62606896000000E-34
 Planck constant (h-bar) [J*s]                              1.05457162825177E-34
 Elementary charge [C]                                      1.60217648700000E-19
 Electron mass [kg]                                         9.10938215000000E-31
 Electron g factor [ ]                                     -2.00231930436220E+00
 Proton mass [kg]                                           1.67262163700000E-27
 Fine-structure constant                                    7.29735253760000E-03
 Rydberg constant [1/m]                                     1.09737315685270E+07
 Avogadro constant [1/mol]                                  6.02214179000000E+23
 Boltzmann constant [J/K]                                   1.38065040000000E-23
 Atomic mass unit [kg]                                      1.66053878200000E-27
 Bohr radius [m]                                            5.29177208590000E-11

 *** Conversion factors ***

 [u] -> [a.u.]                                              1.82288848426455E+03
 [Angstrom] -> [Bohr] = [a.u.]                              1.88972613288564E+00
 [a.u.] = [Bohr] -> [Angstrom]                              5.29177208590000E-01
 [a.u.] -> [s]                                              2.41888432650478E-17
 [a.u.] -> [fs]                                             2.41888432650478E-02
 [a.u.] -> [J]                                              4.35974393937059E-18
 [a.u.] -> [N]                                              8.23872205491840E-08
 [a.u.] -> [K]                                              3.15774647902944E+05
 [a.u.] -> [kJ/mol]                                         2.62549961709828E+03
 [a.u.] -> [kcal/mol]                                       6.27509468713739E+02
 [a.u.] -> [Pa]                                             2.94210107994716E+13
 [a.u.] -> [bar]                                            2.94210107994716E+08
 [a.u.] -> [atm]                                            2.90362800883016E+08
 [a.u.] -> [eV]                                             2.72113838565563E+01
 [a.u.] -> [Hz]                                             6.57968392072181E+15
 [a.u.] -> [1/cm] (wave numbers)                            2.19474631370540E+05
 [a.u./Bohr**2] -> [1/cm]                                   5.14048714338585E+03
 

 CELL_TOP| Volume [angstrom^3]:                                      2046.971605
 CELL_TOP| Vector a [angstrom    20.755     0.000     0.000   |a| =    20.755300
 CELL_TOP| Vector b [angstrom     0.000     5.763     0.000   |b| =     5.763390
 CELL_TOP| Vector c [angstrom    -0.271     0.000    17.112   |c| =    17.114300
 CELL_TOP| Angle (b,c), alpha [degree]:                                90.000000
 CELL_TOP| Angle (a,c), beta  [degree]:                                90.906400
 CELL_TOP| Angle (a,b), gamma [degree]:                                90.000000
 CELL_TOP| Numerically orthorhombic:                                          NO
 CELL_TOP| Periodicity                                                       XYZ

 GENERATE|  Preliminary Number of Bonds generated:                             0
 GENERATE|  Achieved consistency in connectivity generation.

 CELL| Volume [angstrom^3]:                                          2046.971605
 CELL| Vector a [angstrom]:      20.755     0.000     0.000   |a| =    20.755300
 CELL| Vector b [angstrom]:       0.000     5.763     0.000   |b| =     5.763390
 CELL| Vector c [angstrom]:      -0.271     0.000    17.112   |c| =    17.114300
 CELL| Angle (b,c), alpha [degree]:                                    90.000000
 CELL| Angle (a,c), beta  [degree]:                                    90.906400
 CELL| Angle (a,b), gamma [degree]:                                    90.000000
 CELL| Numerically orthorhombic:                                              NO
 CELL| Periodicity                                                           XYZ

 CELL_REF| Volume [angstrom^3]:                                      2046.971605
 CELL_REF| Vector a [angstrom    20.755     0.000     0.000   |a| =    20.755300
 CELL_REF| Vector b [angstrom     0.000     5.763     0.000   |b| =     5.763390
 CELL_REF| Vector c [angstrom    -0.271     0.000    17.112   |c| =    17.114300
 CELL_REF| Angle (b,c), alpha [degree]:                                90.000000
 CELL_REF| Angle (a,c), beta  [degree]:                                90.906400
 CELL_REF| Angle (a,b), gamma [degree]:                                90.000000
 CELL_REF| Numerically orthorhombic:                                          NO
 CELL_REF| Periodicity                                                       XYZ

 *******************************************************************************
 *******************************************************************************
 **                                                                           **
 **     #####                         ##              ##                      **
 **    ##   ##            ##          ##              ##                      **
 **   ##     ##                       ##            ######                    **
 **   ##     ##  ##   ##  ##   #####  ##  ##   ####   ##    #####    #####    **
 **   ##     ##  ##   ##  ##  ##      ## ##   ##      ##   ##   ##  ##   ##   **
 **   ##  ## ##  ##   ##  ##  ##      ####     ###    ##   ######   ######    **
 **    ##  ###   ##   ##  ##  ##      ## ##      ##   ##   ##       ##        **
 **     #######   #####   ##   #####  ##  ##  ####    ##    #####   ##        **
 **           ##                                                    ##        **
 **                                                                           **
 **                                                ... make the atoms dance   **
 **                                                                           **
 **            Copyright (C) by CP2K developers group (2000-2023)             **
 **                      J. Chem. Phys. 152, 194103 (2020)                    **
 **                                                                           **
 *******************************************************************************

 DFT| Spin restricted Kohn-Sham (RKS) calculation                            RKS
 DFT| Multiplicity                                                             1
 DFT| Number of spin states                                                    1
 DFT| Charge                                                                   0
 DFT| Self-interaction correction (SIC)                                       NO
 DFT| Cutoffs: density                                              1.000000E-10
 DFT|          gradient                                             1.000000E-10
 DFT|          tau                                                  1.000000E-10
 DFT|          cutoff_smoothing_range                               0.000000E+00
 DFT| XC density smoothing                                                  NONE
 DFT| XC derivatives                                                          PW

 FUNCTIONAL| PBE:
 FUNCTIONAL| J.P.Perdew, K.Burke, M.Ernzerhof, Phys. Rev. Letter, vol. 77, n 18,
 FUNCTIONAL|  pp. 3865-3868, (1996){spin unpolarized}                           

 vdW POTENTIAL|                                                   Pair Potential
 vdW POTENTIAL|          DFT-D3 (Version 3.1)
 vdW POTENTIAL|          Potential Form: S. Grimme et al, JCP 132: 154104 (2010)
 vdW POTENTIAL|          BJ Damping: S. Grimme et al, JCC 32: 1456 (2011)
 vdW POTENTIAL|          Cutoff Radius [Bohr]:                             30.24
 vdW POTENTIAL|          s6 Scaling Factor:                               1.0000
 vdW POTENTIAL|          a1 Damping Factor:                               0.4289
 vdW POTENTIAL|          s8 Scaling Factor:                               0.7875
 vdW POTENTIAL|          a2 Damping Factor:                               4.4407
 vdW POTENTIAL|          Cutoff for CN calculation:                   0.1000E-05

 QS| Method:                                                                 GPW
 QS| Density plane wave grid type                        NON-SPHERICAL FULLSPACE
 QS| Number of grid levels:                                                    4
 QS| Density cutoff [a.u.]:                                                200.0
 QS| Multi grid cutoff [a.u.]: 1) grid level                               200.0
 QS|                           2) grid level                                66.7
 QS|                           3) grid level                                22.2
 QS|                           4) grid level                                 7.4
 QS| Grid level progression factor:                                          3.0
 QS| Relative density cutoff [a.u.]:                                        30.0
 QS| Interaction thresholds: eps_pgf_orb:                                1.0E-05
 QS|                         eps_filter_matrix:                          0.0E+00
 QS|                         eps_core_charge:                            1.0E-12
 QS|                         eps_rho_gspace:                             1.0E-10
 QS|                         eps_rho_rspace:                             1.0E-10
 QS|                         eps_gvg_rspace:                             1.0E-05
 QS|                         eps_ppl:                                    1.0E-02
 QS|                         eps_ppnl:                                   1.0E-07


 ATOMIC KIND INFORMATION

  1. Atomic kind: O                                     Number of atoms:      12

     Orbital Basis Set                                               TZVP-GTH-q6

       Number of orbital shell sets:                                           2
       Number of orbital shells:                                               7
       Number of primitive Cartesian functions:                                6
       Number of Cartesian basis functions:                                   18
       Number of spherical basis functions:                                   17
       Norm type:                                                              2

       Normalised Cartesian orbitals:

                        Set   Shell   Orbital            Exponent    Coefficient

                          1       1    2s               10.267442       0.404544
                                                         3.748050       0.199889
                                                         1.330834      -0.336302
                                                         0.455680      -0.246356
                                                         0.146292      -0.028287

                          1       2    3s               10.267442       0.000000
                                                         3.748050       0.000000
                                                         1.330834       0.000000
                                                         0.455680       0.395280
                                                         0.146292       0.000000

                          1       3    4s               10.267442       0.000000
                                                         3.748050       0.000000
                                                         1.330834       0.000000
                                                         0.455680       0.000000
                                                         0.146292       0.168588

                          1       4    3px              10.267442      -1.561025
                                                         3.748050      -1.394275
                                                         1.330834      -0.754014
                                                         0.455680      -0.224400
                                                         0.146292      -0.029841
                          1       4    3py              10.267442      -1.561025
                                                         3.748050      -1.394275
                                                         1.330834      -0.754014
                                                         0.455680      -0.224400
                                                         0.146292      -0.029841
                          1       4    3pz              10.267442      -1.561025
                                                         3.748050      -1.394275
                                                         1.330834      -0.754014
                                                         0.455680      -0.224400
                                                         0.146292      -0.029841

                          1       5    4px              10.267442       0.000000
                                                         3.748050       0.000000
                                                         1.330834       0.000000
                                                         0.455680       0.533661
                                                         0.146292       0.000000
                          1       5    4py              10.267442       0.000000
                                                         3.748050       0.000000
                                                         1.330834       0.000000
                                                         0.455680       0.533661
                                                         0.146292       0.000000
                          1       5    4pz              10.267442       0.000000
                                                         3.748050       0.000000
                                                         1.330834       0.000000
                                                         0.455680       0.533661
                                                         0.146292       0.000000

                          1       6    5px              10.267442       0.000000
                                                         3.748050       0.000000
                                                         1.330834       0.000000
                                                         0.455680       0.000000
                                                         0.146292       0.128963
                          1       6    5py              10.267442       0.000000
                                                         3.748050       0.000000
                                                         1.330834       0.000000
                                                         0.455680       0.000000
                                                         0.146292       0.128963
                          1       6    5pz              10.267442       0.000000
                                                         3.748050       0.000000
                                                         1.330834       0.000000
                                                         0.455680       0.000000
                                                         0.146292       0.128963

                          2       1    3dx2              1.185000       2.215218
                          2       1    3dxy              1.185000       3.836871
                          2       1    3dxz              1.185000       3.836871
                          2       1    3dy2              1.185000       2.215218
                          2       1    3dyz              1.185000       3.836871
                          2       1    3dz2              1.185000       2.215218

       Atomic covalent radius [Angstrom]:                                  0.730

       Atomic van der Waals radius [Angstrom]:                             1.520

     GTH Potential information for                                       GTH-PBE

       Description:                       Goedecker-Teter-Hutter pseudopotential
                                           Goedecker et al., PRB 54, 1703 (1996)
                                          Hartwigsen et al., PRB 58, 3641 (1998)
                                                      Krack, TCA 114, 145 (2005)

       Gaussian exponent of the core charge distribution:               8.360253
       Electronic configuration (s p d ...):                               2   4

       Parameters of the local part of the GTH pseudopotential:

                          rloc        C1          C2          C3          C4
                        0.244554  -16.667215    2.487311

       Parameters of the non-local part of the GTH pseudopotential:

                   l      r(l)      h(i,j,l)

                   0    0.220956   18.337458
                   1    0.211332

  2. Atomic kind: N                                     Number of atoms:       4

     Orbital Basis Set                                               TZVP-GTH-q5

       Number of orbital shell sets:                                           2
       Number of orbital shells:                                               7
       Number of primitive Cartesian functions:                                6
       Number of Cartesian basis functions:                                   18
       Number of spherical basis functions:                                   17
       Norm type:                                                              2

       Normalised Cartesian orbitals:

                        Set   Shell   Orbital            Exponent    Coefficient

                          1       1    2s                7.622745       0.321703
                                                         2.797061       0.161118
                                                         0.990977      -0.264934
                                                         0.341731      -0.199987
                                                         0.111682      -0.023066

                          1       2    3s                7.622745       0.000000
                                                         2.797061       0.000000
                                                         0.990977       0.000000
                                                         0.341731       0.318547
                                                         0.111682       0.000000

                          1       3    4s                7.622745       0.000000
                                                         2.797061       0.000000
                                                         0.990977       0.000000
                                                         0.341731       0.000000
                                                         0.111682       0.137689

                          1       4    3px               7.622745      -1.014025
                                                         2.797061      -0.927144
                                                         0.990977      -0.514975
                                                         0.341731      -0.158623
                                                         0.111682      -0.021774
                          1       4    3py               7.622745      -1.014025
                                                         2.797061      -0.927144
                                                         0.990977      -0.514975
                                                         0.341731      -0.158623
                                                         0.111682      -0.021774
                          1       4    3pz               7.622745      -1.014025
                                                         2.797061      -0.927144
                                                         0.990977      -0.514975
                                                         0.341731      -0.158623
                                                         0.111682      -0.021774

                          1       5    4px               7.622745       0.000000
                                                         2.797061       0.000000
                                                         0.990977       0.000000
                                                         0.341731       0.372431
                                                         0.111682       0.000000
                          1       5    4py               7.622745       0.000000
                                                         2.797061       0.000000
                                                         0.990977       0.000000
                                                         0.341731       0.372431
                                                         0.111682       0.000000
                          1       5    4pz               7.622745       0.000000
                                                         2.797061       0.000000
                                                         0.990977       0.000000
                                                         0.341731       0.372431
                                                         0.111682       0.000000

                          1       6    5px               7.622745       0.000000
                                                         2.797061       0.000000
                                                         0.990977       0.000000
                                                         0.341731       0.000000
                                                         0.111682       0.092028
                          1       6    5py               7.622745       0.000000
                                                         2.797061       0.000000
                                                         0.990977       0.000000
                                                         0.341731       0.000000
                                                         0.111682       0.092028
                          1       6    5pz               7.622745       0.000000
                                                         2.797061       0.000000
                                                         0.990977       0.000000
                                                         0.341731       0.000000
                                                         0.111682       0.092028

                          2       1    3dx2              0.817000       1.155575
                          2       1    3dxy              0.817000       2.001514
                          2       1    3dxz              0.817000       2.001514
                          2       1    3dy2              0.817000       1.155575
                          2       1    3dyz              0.817000       2.001514
                          2       1    3dz2              0.817000       1.155575

       Atomic covalent radius [Angstrom]:                                  0.750

       Atomic van der Waals radius [Angstrom]:                             1.550

     GTH Potential information for                                       GTH-PBE

       Description:                       Goedecker-Teter-Hutter pseudopotential
                                           Goedecker et al., PRB 54, 1703 (1996)
                                          Hartwigsen et al., PRB 58, 3641 (1998)
                                                      Krack, TCA 114, 145 (2005)

       Gaussian exponent of the core charge distribution:               6.208322
       Electronic configuration (s p d ...):                               2   3

       Parameters of the local part of the GTH pseudopotential:

                          rloc        C1          C2          C3          C4
                        0.283791  -12.415226    1.868096

       Parameters of the non-local part of the GTH pseudopotential:

                   l      r(l)      h(i,j,l)

                   0    0.255405   13.630263
                   1    0.245495

  3. Atomic kind: C                                     Number of atoms:      96

     Orbital Basis Set                                               TZVP-GTH-q4

       Number of orbital shell sets:                                           2
       Number of orbital shells:                                               7
       Number of primitive Cartesian functions:                                6
       Number of Cartesian basis functions:                                   18
       Number of spherical basis functions:                                   17
       Norm type:                                                              2

       Normalised Cartesian orbitals:

                        Set   Shell   Orbital            Exponent    Coefficient

                          1       1    2s                5.368566       0.245056
                                                         1.983069       0.124102
                                                         0.697835      -0.198350
                                                         0.243097      -0.156359
                                                         0.081287      -0.018192

                          1       2    3s                5.368566       0.000000
                                                         1.983069       0.000000
                                                         0.697835       0.000000
                                                         0.243097       0.246743
                                                         0.081287       0.000000

                          1       3    4s                5.368566       0.000000
                                                         1.983069       0.000000
                                                         0.697835       0.000000
                                                         0.243097       0.000000
                                                         0.081287       0.108499

                          1       4    3px               5.368566      -0.595193
                                                         1.983069      -0.567909
                                                         0.697835      -0.325466
                                                         0.243097      -0.105296
                                                         0.081287      -0.015205
                          1       4    3py               5.368566      -0.595193
                                                         1.983069      -0.567909
                                                         0.697835      -0.325466
                                                         0.243097      -0.105296
                                                         0.081287      -0.015205
                          1       4    3pz               5.368566      -0.595193
                                                         1.983069      -0.567909
                                                         0.697835      -0.325466
                                                         0.243097      -0.105296
                                                         0.081287      -0.015205

                          1       5    4px               5.368566       0.000000
                                                         1.983069       0.000000
                                                         0.697835       0.000000
                                                         0.243097       0.243312
                                                         0.081287       0.000000
                          1       5    4py               5.368566       0.000000
                                                         1.983069       0.000000
                                                         0.697835       0.000000
                                                         0.243097       0.243312
                                                         0.081287       0.000000
                          1       5    4pz               5.368566       0.000000
                                                         1.983069       0.000000
                                                         0.697835       0.000000
                                                         0.243097       0.243312
                                                         0.081287       0.000000

                          1       6    5px               5.368566       0.000000
                                                         1.983069       0.000000
                                                         0.697835       0.000000
                                                         0.243097       0.000000
                                                         0.081287       0.061868
                          1       6    5py               5.368566       0.000000
                                                         1.983069       0.000000
                                                         0.697835       0.000000
                                                         0.243097       0.000000
                                                         0.081287       0.061868
                          1       6    5pz               5.368566       0.000000
                                                         1.983069       0.000000
                                                         0.697835       0.000000
                                                         0.243097       0.000000
                                                         0.081287       0.061868

                          2       1    3dx2              0.550000       0.578155
                          2       1    3dxy              0.550000       1.001394
                          2       1    3dxz              0.550000       1.001394
                          2       1    3dy2              0.550000       0.578155
                          2       1    3dyz              0.550000       1.001394
                          2       1    3dz2              0.550000       0.578155

       Atomic covalent radius [Angstrom]:                                  0.770

       Atomic van der Waals radius [Angstrom]:                             1.700

     GTH Potential information for                                       GTH-PBE

       Description:                       Goedecker-Teter-Hutter pseudopotential
                                           Goedecker et al., PRB 54, 1703 (1996)
                                          Hartwigsen et al., PRB 58, 3641 (1998)
                                                      Krack, TCA 114, 145 (2005)

       Gaussian exponent of the core charge distribution:               4.364419
       Electronic configuration (s p d ...):                               2   2

       Parameters of the local part of the GTH pseudopotential:

                          rloc        C1          C2          C3          C4
                        0.338471   -8.803674    1.339211

       Parameters of the non-local part of the GTH pseudopotential:

                   l      r(l)      h(i,j,l)

                   0    0.302576    9.622487
                   1    0.291507

  4. Atomic kind: H                                     Number of atoms:      60

     Orbital Basis Set                                               TZVP-GTH-q1

       Number of orbital shell sets:                                           2
       Number of orbital shells:                                               4
       Number of primitive Cartesian functions:                                6
       Number of Cartesian basis functions:                                    6
       Number of spherical basis functions:                                    6
       Norm type:                                                              2

       Normalised Cartesian orbitals:

                        Set   Shell   Orbital            Exponent    Coefficient

                          1       1    1s               10.882724      -0.071340
                                                         3.096875      -0.104410
                                                         0.987452      -0.135375
                                                         0.345069      -0.133923
                                                         0.149269      -0.073092

                          1       2    2s               10.882724       0.000000
                                                         3.096875       0.000000
                                                         0.987452       0.000000
                                                         0.345069       0.320878
                                                         0.149269       0.000000

                          1       3    3s               10.882724       0.000000
                                                         3.096875       0.000000
                                                         0.987452       0.000000
                                                         0.345069       0.000000
                                                         0.149269       0.171154

                          2       1    2px               0.727000       0.956881
                          2       1    2py               0.727000       0.956881
                          2       1    2pz               0.727000       0.956881

       Atomic covalent radius [Angstrom]:                                  0.320

       Atomic van der Waals radius [Angstrom]:                             1.090

     GTH Potential information for                                       GTH-PBE

       Description:                       Goedecker-Teter-Hutter pseudopotential
                                           Goedecker et al., PRB 54, 1703 (1996)
                                          Hartwigsen et al., PRB 58, 3641 (1998)
                                                      Krack, TCA 114, 145 (2005)

       Gaussian exponent of the core charge distribution:              12.500000
       Electronic configuration (s p d ...):                                   1

       Parameters of the local part of the GTH pseudopotential:

                          rloc        C1          C2          C3          C4
                        0.200000   -4.178900    0.724463

  5. Atomic kind: F                                     Number of atoms:      24

     Orbital Basis Set                                               TZVP-GTH-q7

       Number of orbital shell sets:                                           2
       Number of orbital shells:                                               7
       Number of primitive Cartesian functions:                                6
       Number of Cartesian basis functions:                                   18
       Number of spherical basis functions:                                   17
       Norm type:                                                              2

       Normalised Cartesian orbitals:

                        Set   Shell   Orbital            Exponent    Coefficient

                          1       1    2s               13.162513       0.499791
                                                         4.797202       0.231391
                                                         1.704998      -0.412780
                                                         0.581447      -0.293250
                                                         0.184258      -0.033277

                          1       2    3s               13.162513       0.000000
                                                         4.797202       0.000000
                                                         1.704998       0.000000
                                                         0.581447       0.474562
                                                         0.184258       0.000000

                          1       3    4s               13.162513       0.000000
                                                         4.797202       0.000000
                                                         1.704998       0.000000
                                                         0.581447       0.000000
                                                         0.184258       0.200438

                          1       4    3px              13.162513      -2.230542
                                                         4.797202      -1.972071
                                                         1.704998      -1.037904
                                                         0.581447      -0.300489
                                                         0.184258      -0.039017
                          1       4    3py              13.162513      -2.230542
                                                         4.797202      -1.972071
                                                         1.704998      -1.037904
                                                         0.581447      -0.300489
                                                         0.184258      -0.039017
                          1       4    3pz              13.162513      -2.230542
                                                         4.797202      -1.972071
                                                         1.704998      -1.037904
                                                         0.581447      -0.300489
                                                         0.184258      -0.039017

                          1       5    4px              13.162513       0.000000
                                                         4.797202       0.000000
                                                         1.704998       0.000000
                                                         0.581447       0.723732
                                                         0.184258       0.000000
                          1       5    4py              13.162513       0.000000
                                                         4.797202       0.000000
                                                         1.704998       0.000000
                                                         0.581447       0.723732
                                                         0.184258       0.000000
                          1       5    4pz              13.162513       0.000000
                                                         4.797202       0.000000
                                                         1.704998       0.000000
                                                         0.581447       0.723732
                                                         0.184258       0.000000

                          1       6    5px              13.162513       0.000000
                                                         4.797202       0.000000
                                                         1.704998       0.000000
                                                         0.581447       0.000000
                                                         0.184258       0.172077
                          1       6    5py              13.162513       0.000000
                                                         4.797202       0.000000
                                                         1.704998       0.000000
                                                         0.581447       0.000000
                                                         0.184258       0.172077
                          1       6    5pz              13.162513       0.000000
                                                         4.797202       0.000000
                                                         1.704998       0.000000
                                                         0.581447       0.000000
                                                         0.184258       0.172077

                          2       1    3dx2              1.640000       3.911886
                          2       1    3dxy              1.640000       6.775585
                          2       1    3dxz              1.640000       6.775585
                          2       1    3dy2              1.640000       3.911886
                          2       1    3dyz              1.640000       6.775585
                          2       1    3dz2              1.640000       3.911886

       Atomic covalent radius [Angstrom]:                                  0.720

       Atomic van der Waals radius [Angstrom]:                             1.470

     GTH Potential information for                                       GTH-PBE

       Description:                       Goedecker-Teter-Hutter pseudopotential
                                           Goedecker et al., PRB 54, 1703 (1996)
                                          Hartwigsen et al., PRB 58, 3641 (1998)
                                                      Krack, TCA 114, 145 (2005)

       Gaussian exponent of the core charge distribution:              10.823746
       Electronic configuration (s p d ...):                               2   5

       Parameters of the local part of the GTH pseudopotential:

                          rloc        C1          C2          C3          C4
                        0.214930  -21.573028    3.199776

       Parameters of the non-local part of the GTH pseudopotential:

                   l      r(l)      h(i,j,l)

                   0    0.194684   23.743540
                   1    0.186156


 MOLECULE KIND INFORMATION


 All atoms are their own molecule, skipping detailed information


 TOTAL NUMBERS AND MAXIMUM NUMBERS

  Total number of            - Atomic kinds:                                   5
                             - Atoms:                                        196
                             - Shell sets:                                   392
                             - Shells:                                      1192
                             - Primitive Cartesian functions:               1176
                             - Cartesian basis functions:                   2808
                             - Spherical basis functions:                   2672

  Maximum angular momentum of- Orbital basis functions:                        2
                             - Local part of the GTH pseudopotential:          2
                             - Non-local part of the GTH pseudopotential:      0


 MODULE QUICKSTEP: ATOMIC COORDINATES IN ANGSTROM

   Atom Kind Element         X             Y             Z       Z(eff)     Mass
      1    1 O     8      7.645074      0.807993      8.014000   6.0000  15.9994
      2    1 O     8     12.974860      3.689688      0.542079   6.0000  15.9994
      3    1 O     8     12.839495      4.955397      9.098158   6.0000  15.9994
      4    1 O     8      7.509709      2.073702     16.570080   6.0000  15.9994
      5    1 O     8      1.627453      0.042632      5.550021   6.0000  15.9994
      6    1 O     8     18.992482      2.924327      3.006059   6.0000  15.9994
      7    1 O     8     18.857116      5.720758     11.562138   6.0000  15.9994
      8    1 O     8      1.492087      2.839063     14.106100   6.0000  15.9994
      9    1 O     8     16.389122      5.198388     15.646194   6.0000  15.9994
     10    1 O     8      3.960082      2.316693     10.022044   6.0000  15.9994
     11    1 O     8      4.095447      0.565002      1.465964   6.0000  15.9994
     12    1 O     8     16.524487      3.446697      7.090115   6.0000  15.9994
     13    2 N     7     11.707731      3.004196     12.171741   5.0000  14.0067
     14    2 N     7      8.641472      0.122501     13.496496   5.0000  14.0067
     15    2 N     7      8.776837      2.759194      4.940417   5.0000  14.0067
     16    2 N     7     11.843097      5.640889      3.615662   5.0000  14.0067
     17    3 C     6      4.535892      4.733224      7.281771   4.0000  12.0107
     18    3 C     6     16.084043      1.851529      1.274308   4.0000  12.0107
     19    3 C     6     15.948677      1.030166      9.830387   4.0000  12.0107
     20    3 C     6      4.400526      3.911861     15.837850   4.0000  12.0107
     21    4 H     1      5.121258      5.066452      7.923015   1.0000   1.0079
     22    4 H     1     15.498677      2.184757      0.633064   1.0000   1.0079
     23    4 H     1     15.363311      0.696938      9.189144   1.0000   1.0079
     24    4 H     1      4.985892      3.578633     16.479094   1.0000   1.0079
     25    3 C     6      3.482913      5.457054      6.905304   4.0000  12.0107
     26    3 C     6     17.137022      2.575359      1.650776   4.0000  12.0107
     27    3 C     6     17.001656      0.306336     10.206855   4.0000  12.0107
     28    3 C     6      3.347547      3.188031     15.461383   4.0000  12.0107
     29    4 H     1      3.331609      0.525696      7.292158   1.0000   1.0079
     30    4 H     1     17.288326      3.407391      1.263921   1.0000   1.0079
     31    4 H     1     17.152960      5.237694      9.820000   1.0000   1.0079
     32    4 H     1      3.196243      2.355999     15.848237   1.0000   1.0079
     33    3 C     6      2.659446      5.003764      5.993568   4.0000  12.0107
     34    3 C     6     17.960489      2.122069      2.562512   4.0000  12.0107
     35    3 C     6     17.825123      0.759626     11.118591   4.0000  12.0107
     36    3 C     6      2.524080      3.641321     14.549647   4.0000  12.0107
     37    3 C     6      2.844204      3.823825      5.387797   4.0000  12.0107
     38    3 C     6     17.775730      0.942130      3.168282   4.0000  12.0107
     39    3 C     6     17.640365      1.939565     11.724361   4.0000  12.0107
     40    3 C     6      2.708839      4.821260     13.943877   4.0000  12.0107
     41    4 H     1      2.263757      3.521431      4.726892   1.0000   1.0079
     42    4 H     1     18.356177      0.639736      3.829188   1.0000   1.0079
     43    4 H     1     18.220812      2.241959     12.385267   1.0000   1.0079
     44    4 H     1      2.128391      5.123654     13.282971   1.0000   1.0079
     45    3 C     6      3.897444      3.100519      5.774019   4.0000  12.0107
     46    3 C     6     16.722490      0.218824      2.782061   4.0000  12.0107
     47    3 C     6     16.587124      2.662871     11.338140   4.0000  12.0107
     48    3 C     6      3.762079      5.544566     14.330098   4.0000  12.0107
     49    4 H     1      4.044463      2.278706      5.364148   1.0000   1.0079
     50    4 H     1     16.575471      5.160401      3.191931   1.0000   1.0079
     51    4 H     1     16.440106      3.484684     11.748010   1.0000   1.0079
     52    4 H     1      3.909098      0.602989     13.920228   1.0000   1.0079
     53    3 C     6      4.759634      3.504464      6.730760   4.0000  12.0107
     54    3 C     6     15.860300      0.622769      1.825320   4.0000  12.0107
     55    3 C     6     15.724934      2.258926     10.381399   4.0000  12.0107
     56    3 C     6      4.624269      5.140621     15.286839   4.0000  12.0107
     57    3 C     6      5.820509      2.663643      7.185430   4.0000  12.0107
     58    3 C     6     14.799426      5.545338      1.370650   4.0000  12.0107
     59    3 C     6     14.664060      3.099747      9.926729   4.0000  12.0107
     60    3 C     6      5.685143      0.218052     15.741509   4.0000  12.0107
     61    4 H     1      5.842282      1.811750      6.812812   1.0000   1.0079
     62    4 H     1     14.777653      4.693445      1.743267   1.0000   1.0079
     63    4 H     1     14.642287      3.951640     10.299346   1.0000   1.0079
     64    4 H     1      5.706916      1.069945     15.368892   1.0000   1.0079
     65    3 C     6      6.745040      2.916310      8.032481   4.0000  12.0107
     66    3 C     6     13.874895      0.034615      0.523598   4.0000  12.0107
     67    3 C     6     13.739529      2.847080      9.079677   4.0000  12.0107
     68    3 C     6      6.609674      5.728775     16.588561   4.0000  12.0107
     69    4 H     1      6.803002      3.774081      8.387131   1.0000   1.0079
     70    4 H     1     13.816932      0.892386      0.168948   1.0000   1.0079
     71    4 H     1     13.681567      1.989309      8.725028   1.0000   1.0079
     72    4 H     1      6.667637      4.871004     16.943210   1.0000   1.0079
     73    3 C     6      7.695961      1.929560      8.457719   4.0000  12.0107
     74    3 C     6     12.923973      4.811255      0.098361   4.0000  12.0107
     75    3 C     6     12.788607      3.833830      8.654440   4.0000  12.0107
     76    3 C     6      7.560596      0.952135     17.013798   4.0000  12.0107
     77    3 C     6      8.699687      2.269882      9.441668   4.0000  12.0107
     78    3 C     6     11.649516      5.151577     16.226570   4.0000  12.0107
     79    3 C     6     11.784882      3.493508      7.670491   4.0000  12.0107
     80    3 C     6      8.835053      0.611813      0.885588   4.0000  12.0107
     81    3 C     6      9.646537      1.370165      9.743868   4.0000  12.0107
     82    3 C     6     10.702667      4.251860     15.924369   4.0000  12.0107
     83    3 C     6     10.838032      4.393225      7.368290   4.0000  12.0107
     84    3 C     6      9.781902      1.511530      1.187789   4.0000  12.0107
     85    4 H     1      9.617010      0.539718      9.326144   1.0000   1.0079
     86    4 H     1     10.732193      3.421413     16.342094   1.0000   1.0079
     87    4 H     1     10.867558      5.223672      7.786015   1.0000   1.0079
     88    4 H     1      9.752376      2.341977      0.770064   1.0000   1.0079
     89    3 C     6     10.639868      1.610556     10.623947   4.0000  12.0107
     90    3 C     6      9.709336      4.492251     15.044291   4.0000  12.0107
     91    3 C     6      9.844701      4.152834      6.488212   4.0000  12.0107
     92    3 C     6     10.775233      1.271139      2.067867   4.0000  12.0107
     93    4 H     1     11.286495      0.963887     10.793408   1.0000   1.0079
     94    4 H     1      9.062708      3.845582     14.874829   1.0000   1.0079
     95    4 H     1      9.198073      4.799503      6.318750   1.0000   1.0079
     96    4 H     1     11.421861      1.917808      2.237329   1.0000   1.0079
     97    3 C     6     10.682903      2.815796     11.262230   4.0000  12.0107
     98    3 C     6      9.666300      5.697491     14.406008   4.0000  12.0107
     99    3 C     6      9.801666      2.947594      5.849928   4.0000  12.0107
    100    3 C     6     10.818268      0.065899      2.706151   4.0000  12.0107
    101    3 C     6      9.712382      3.705030     11.000072   4.0000  12.0107
    102    3 C     6     10.636822      0.823335     14.668166   4.0000  12.0107
    103    3 C     6     10.772187      2.058360      6.112087   4.0000  12.0107
    104    3 C     6      9.847747      4.940055      2.443993   4.0000  12.0107
    105    4 H     1      9.705962      4.515662     11.455700   1.0000   1.0079
    106    4 H     1     10.643241      1.633967     14.212537   1.0000   1.0079
    107    4 H     1     10.778607      1.247728      5.656458   1.0000   1.0079
    108    4 H     1      9.841327      4.129423      2.899621   1.0000   1.0079
    109    3 C     6      8.753818      3.456051     10.100144   4.0000  12.0107
    110    3 C     6     11.595385      0.574356     15.568094   4.0000  12.0107
    111    3 C     6     11.730750      2.307339      7.012015   4.0000  12.0107
    112    3 C     6      8.889184      5.189034      1.544064   4.0000  12.0107
    113    4 H     1      8.113629      4.106778      9.922571   1.0000   1.0079
    114    4 H     1     12.235575      1.225083     15.745667   1.0000   1.0079
    115    4 H     1     12.370940      1.656612      7.189588   1.0000   1.0079
    116    4 H     1      8.248994      4.538307      1.366491   1.0000   1.0079
    117    3 C     6     12.293330      4.102300     12.179100   4.0000  12.0107
    118    3 C     6      8.055874      1.220605     13.489138   4.0000  12.0107
    119    3 C     6      8.191239      1.661090      4.933059   4.0000  12.0107
    120    3 C     6     12.428695      4.542785      3.623020   4.0000  12.0107
    121    4 H     1     12.016281      4.762237     11.585274   1.0000   1.0079
    122    4 H     1      8.332923      1.880542     14.082964   1.0000   1.0079
    123    4 H     1      8.468288      1.001153      5.526885   1.0000   1.0079
    124    4 H     1     12.151646      3.882848      3.029194   1.0000   1.0079
    125    3 C     6     13.364520      4.382171     13.057467   4.0000  12.0107
    126    3 C     6      6.984683      1.500476     12.610771   4.0000  12.0107
    127    3 C     6      7.120049      1.381219      4.054692   4.0000  12.0107
    128    3 C     6     13.499886      4.262914      4.501388   4.0000  12.0107
    129    3 C     6     13.759165      3.502337     13.983406   4.0000  12.0107
    130    3 C     6      6.590038      0.620642     11.684832   4.0000  12.0107
    131    3 C     6      6.725404      2.261053      3.128753   4.0000  12.0107
    132    3 C     6     13.894531      5.142748      5.427326   4.0000  12.0107
    133    4 H     1     13.315399      2.688068     14.054096   1.0000   1.0079
    134    4 H     1      7.033805      5.569763     11.614142   1.0000   1.0079
    135    4 H     1      7.169170      3.075322      3.058063   1.0000   1.0079
    136    4 H     1     13.450764      0.193627      5.498017   1.0000   1.0079
    137    3 C     6     14.784781      3.766819     14.816939   4.0000  12.0107
    138    3 C     6      5.564423      0.885124     10.851299   4.0000  12.0107
    139    3 C     6      5.699788      1.996571      2.295220   4.0000  12.0107
    140    3 C     6     14.920146      4.878266      6.260860   4.0000  12.0107
    141    4 H     1     15.049475      3.144886     15.455719   1.0000   1.0079
    142    4 H     1      5.299728      0.263191     10.212519   1.0000   1.0079
    143    4 H     1      5.435094      2.618504      1.656440   1.0000   1.0079
    144    4 H     1     15.184840      5.500199      6.899639   1.0000   1.0079
    145    3 C     6     15.409795      4.933566     14.707421   4.0000  12.0107
    146    3 C     6      4.939408      2.051871     10.960817   4.0000  12.0107
    147    3 C     6      5.074774      0.829824      2.404737   4.0000  12.0107
    148    3 C     6     15.545161      3.711519      6.151342   4.0000  12.0107
    149    3 C     6     15.066260      0.064994     13.804413   4.0000  12.0107
    150    3 C     6      5.282943      2.946689     11.863825   4.0000  12.0107
    151    3 C     6      5.418309      5.698396      3.307746   4.0000  12.0107
    152    3 C     6     15.201626      2.816701      5.248333   4.0000  12.0107
    153    4 H     1     15.527129      0.870174     13.740293   1.0000   1.0079
    154    4 H     1      4.822074      3.751869     11.927945   1.0000   1.0079
    155    4 H     1      4.957440      4.893216      3.371865   1.0000   1.0079
    156    4 H     1     15.662495      2.011521      5.184214   1.0000   1.0079
    157    3 C     6     14.031337      5.560496     12.968826   4.0000  12.0107
    158    3 C     6      6.317866      2.678801     12.699412   4.0000  12.0107
    159    3 C     6      6.453232      0.202894      4.143333   4.0000  12.0107
    160    3 C     6     14.166703      3.084589      4.412747   4.0000  12.0107
    161    4 H     1     13.777415      0.424917     12.331347   1.0000   1.0079
    162    4 H     1      6.571788      3.306612     13.336891   1.0000   1.0079
    163    4 H     1      6.707153      5.338473      4.780812   1.0000   1.0079
    164    4 H     1     13.912781      2.456778      3.775267   1.0000   1.0079
    165    3 C     6     17.560185      5.499542     15.357067   4.0000  12.0107
    166    3 C     6      2.789018      2.617847     10.311171   4.0000  12.0107
    167    3 C     6      2.924384      0.263848      1.755091   4.0000  12.0107
    168    3 C     6     17.695551      3.145543      6.800988   4.0000  12.0107
    169    5 F     9     17.300842      1.138103     15.323322   7.0000  18.9984
    170    5 F     9      3.048361      4.019798     10.344916   7.0000  18.9984
    171    5 F     9      3.183727      4.625287      1.788837   7.0000  18.9984
    172    5 F     9     17.436208      1.743592      6.767243   7.0000  18.9984
    173    5 F     9     18.322196      5.727202     16.293735   7.0000  18.9984
    174    5 F     9      2.027008      2.845507      9.374502   7.0000  18.9984
    175    5 F     9      2.162373      0.036188      0.818423   7.0000  18.9984
    176    5 F     9     18.457561      2.917883      7.737656   7.0000  18.9984
    177    5 F     9     17.992928      4.933584     14.292126   7.0000  18.9984
    178    5 F     9      2.356275      2.051889     11.376112   7.0000  18.9984
    179    5 F     9      2.491640      0.829806      2.820032   7.0000  18.9984
    180    5 F     9     18.128294      3.711501      5.736047   7.0000  18.9984
    181    3 C     6      0.525968      5.743917      6.207316   4.0000  12.0107
    182    3 C     6     20.093966      2.862222      2.348764   4.0000  12.0107
    183    3 C     6     19.958601      0.019473     10.904843   4.0000  12.0107
    184    3 C     6      0.390603      2.901168     14.763395   4.0000  12.0107
    185    5 F     9      0.182019      4.749041      6.773591   7.0000  18.9984
    186    5 F     9     20.437916      1.867346      1.782488   7.0000  18.9984
    187    5 F     9     20.302550      1.014349     10.338567   7.0000  18.9984
    188    5 F     9      0.046653      3.896044     15.329671   7.0000  18.9984
    189    5 F     9     20.300541      0.597787      5.586675   7.0000  18.9984
    190    5 F     9      0.319394      3.479482      2.969404   7.0000  18.9984
    191    5 F     9      0.184028      5.165603     11.525484   7.0000  18.9984
    192    5 F     9     20.165175      2.283908     14.142754   7.0000  18.9984
    193    5 F     9      0.869955      1.119432      7.003082   7.0000  18.9984
    194    5 F     9     19.749980      4.001127      1.552997   7.0000  18.9984
    195    5 F     9     19.614614      4.643958     10.109076   7.0000  18.9984
    196    5 F     9      0.734589      1.762263     15.559162   7.0000  18.9984



 SCF PARAMETERS         Density guess:                                    ATOMIC
                        --------------------------------------------------------
                        max_scf:                                             128
                        max_scf_history:                                       0
                        max_diis:                                              4
                        --------------------------------------------------------
                        eps_scf:                                        1.00E-06
                        eps_scf_history:                                0.00E+00
                        eps_diis:                                       1.00E-01
                        eps_eigval:                                     1.00E-05
                        --------------------------------------------------------
                        level_shift [a.u.]:                             0.000000
                        --------------------------------------------------------
                        Mixing method:                            BROYDEN_MIXING
                                                charge density mixing in g-space
                        --------------------------------------------------------
                        No outer SCF

 PW_GRID| Information for grid number                                          1
 PW_GRID| Grid distributed over                                    90 processors
 PW_GRID| Real space group dimensions                                    90    1
 PW_GRID| the grid is blocked:                                                NO
 PW_GRID| Cutoff [a.u.]                                                    200.0
 PW_GRID| spherical cutoff:                                                   NO
 PW_GRID|   Bounds   1           -128     127                Points:         256
 PW_GRID|   Bounds   2            -36      35                Points:          72
 PW_GRID|   Bounds   3           -108     107                Points:         216
 PW_GRID| Volume element (a.u.^3)  0.3470E-02     Volume (a.u.^3)     13813.6493
 PW_GRID| Grid span                                                    FULLSPACE
 PW_GRID|   Distribution                         Average         Max         Min
 PW_GRID|   G-Vectors                            44236.8       44288       44032
 PW_GRID|   G-Rays                                 172.8         173         172
 PW_GRID|   Real Space Points                    44236.8       46656       31104

 PW_GRID| Information for grid number                                          2
 PW_GRID| Number of the reference grid                                         1
 PW_GRID| Grid distributed over                                    90 processors
 PW_GRID| Real space group dimensions                                    90    1
 PW_GRID| the grid is blocked:                                                NO
 PW_GRID| Cutoff [a.u.]                                                     66.7
 PW_GRID| spherical cutoff:                                                   NO
 PW_GRID|   Bounds   1            -75      74                Points:         150
 PW_GRID|   Bounds   2            -22      22                Points:          45
 PW_GRID|   Bounds   3            -60      59                Points:         120
 PW_GRID| Volume element (a.u.^3)  0.1705E-01     Volume (a.u.^3)     13813.6493
 PW_GRID| Grid span                                                    FULLSPACE
 PW_GRID|   Distribution                         Average         Max         Min
 PW_GRID|   G-Vectors                             9000.0       11550        7800
 PW_GRID|   G-Rays                                  60.0          77          52
 PW_GRID|   Real Space Points                     9000.0       10800        5400

 PW_GRID| Information for grid number                                          3
 PW_GRID| Number of the reference grid                                         1
 PW_GRID| Grid distributed over                                    90 processors
 PW_GRID| Real space group dimensions                                    90    1
 PW_GRID| the grid is blocked:                                                NO
 PW_GRID| Cutoff [a.u.]                                                     22.2
 PW_GRID| spherical cutoff:                                                   NO
 PW_GRID|   Bounds   1            -45      44                Points:          90
 PW_GRID|   Bounds   2            -12      11                Points:          24
 PW_GRID|   Bounds   3            -36      35                Points:          72
 PW_GRID| Volume element (a.u.^3)  0.8882E-01     Volume (a.u.^3)     13813.6493
 PW_GRID| Grid span                                                    FULLSPACE
 PW_GRID|   Distribution                         Average         Max         Min
 PW_GRID|   G-Vectors                             1728.0        2250        1350
 PW_GRID|   G-Rays                                  19.2          25          15
 PW_GRID|   Real Space Points                     1728.0        1728        1728

 PW_GRID| Information for grid number                                          4
 PW_GRID| Number of the reference grid                                         1
 PW_GRID| Grid distributed over                                    90 processors
 PW_GRID| Real space group dimensions                                     9   10
 PW_GRID| the grid is blocked:                                                NO
 PW_GRID| Cutoff [a.u.]                                                      7.4
 PW_GRID| spherical cutoff:                                                   NO
 PW_GRID|   Bounds   1            -27      26                Points:          54
 PW_GRID|   Bounds   2             -7       7                Points:          15
 PW_GRID|   Bounds   3            -20      19                Points:          40
 PW_GRID| Volume element (a.u.^3)  0.4263         Volume (a.u.^3)     13813.6493
 PW_GRID| Grid span                                                    FULLSPACE
 PW_GRID|   Distribution                         Average         Max         Min
 PW_GRID|   G-Vectors                              360.0         486         216
 PW_GRID|   G-Rays                                   6.7           9           4
 PW_GRID|   Real Space Points                      360.0         480         240

 POISSON| Solver                                                        PERIODIC
 POISSON| Periodicity                                                        XYZ

 RS_GRID| Information for grid number                                          1
 RS_GRID|   Bounds   1           -128     127                Points:         256
 RS_GRID|   Bounds   2            -36      35                Points:          72
 RS_GRID|   Bounds   3           -108     107                Points:         216
 RS_GRID| Real space distribution over                                 10 groups
 RS_GRID| Real space distribution along direction                              1
 RS_GRID| Border size                                                         26
 RS_GRID| Real space distribution over                                  9 groups
 RS_GRID| Real space distribution along direction                              3
 RS_GRID| Border size                                                         26
 RS_GRID|   Distribution                         Average         Max         Min
 RS_GRID|   Planes                                  77.6          78          77
 RS_GRID|   Distribution                         Average         Max         Min
 RS_GRID|   Planes                                  76.0          76          76

 RS_GRID| Information for grid number                                          2
 RS_GRID|   Bounds   1            -75      74                Points:         150
 RS_GRID|   Bounds   2            -22      22                Points:          45
 RS_GRID|   Bounds   3            -60      59                Points:         120
 RS_GRID| Real space distribution over                                 10 groups
 RS_GRID| Real space distribution along direction                              1
 RS_GRID| Border size                                                         28
 RS_GRID| Real space distribution over                                  9 groups
 RS_GRID| Real space distribution along direction                              3
 RS_GRID| Border size                                                         28
 RS_GRID|   Distribution                         Average         Max         Min
 RS_GRID|   Planes                                  71.0          71          71
 RS_GRID|   Distribution                         Average         Max         Min
 RS_GRID|   Planes                                  69.3          70          69

 RS_GRID| Information for grid number                                          3
 RS_GRID|   Bounds   1            -45      44                Points:          90
 RS_GRID|   Bounds   2            -12      11                Points:          24
 RS_GRID|   Bounds   3            -36      35                Points:          72
 RS_GRID| Real space fully replicated
 RS_GRID| Group size                                                           1

 RS_GRID| Information for grid number                                          4
 RS_GRID|   Bounds   1            -27      26                Points:          54
 RS_GRID|   Bounds   2             -7       7                Points:          15
 RS_GRID|   Bounds   3            -20      19                Points:          40
 RS_GRID| Real space fully replicated
 RS_GRID| Group size                                                           1

 *******************************************************************************
 ***                     STARTING GEOMETRY OPTIMIZATION                      ***
 ***                                 L-BFGS                                  ***
 *******************************************************************************

 --------------------------
 OPTIMIZATION STEP:      1
 --------------------------

 Number of electrons:                                                        704
 Number of occupied orbitals:                                                352
 Number of molecular orbitals:                                               352

 Number of orbital functions:                                               2672
 Number of independent orbital functions:                                   2672

 Extrapolation method: initial_guess

 Atomic guess: The first density matrix is obtained in terms of atomic orbitals
               and electronic configurations assigned to each atomic kind

 Guess for atomic kind: O

 Electronic structure
    Total number of core electrons                                          2.00
    Total number of valence electrons                                       6.00
    Total number of electrons                                               8.00
    Multiplicity                                                   not specified
    S   [  2.00] 2.00
    P      4.00


 *******************************************************************************
                  Iteration          Convergence                     Energy [au]
 *******************************************************************************
                          1        0.577491                     -15.568616633298
                          2        0.659429                     -15.574385699476
                          3        0.252248E-01                 -15.656217861375
                          4        0.156627E-02                 -15.656397101845
                          5        0.161710E-04                 -15.656397459300
                          6        0.346702E-06                 -15.656397459369

 Energy components [Hartree]           Total Energy ::          -15.656397459369
                                        Band Energy ::           -3.001886830830
                                     Kinetic Energy ::           11.780460877478
                                   Potential Energy ::          -27.436858336847
                                      Virial (-V/T) ::            2.329014002271
                                        Core Energy ::          -26.138300535672
                                          XC Energy ::           -3.153767183935
                                     Coulomb Energy ::           13.635670260237
                       Total Pseudopotential Energy ::          -37.953932103637
                       Local Pseudopotential Energy ::          -39.253303299158
                    Nonlocal Pseudopotential Energy ::            1.299371195522
                                        Confinement ::            0.351706904867

 Orbital energies  State     L     Occupation   Energy[a.u.]          Energy[eV]

                       1     0          2.000      -0.864888          -23.534800

                       1     1          4.000      -0.318028           -8.653974


 Total Electron Density at R=0:                                         0.000125

 Guess for atomic kind: N

 Electronic structure
    Total number of core electrons                                          2.00
    Total number of valence electrons                                       5.00
    Total number of electrons                                               7.00
    Multiplicity                                                   not specified
    S   [  2.00] 2.00
    P      3.00


 *******************************************************************************
                  Iteration          Convergence                     Energy [au]
 *******************************************************************************
                          1        0.271988                      -9.512616220151
                          2        0.247955                      -9.522554716740
                          3        0.504788E-02                  -9.546164505587
                          4        0.458466E-03                  -9.546178122964
                          5        0.244989E-05                  -9.546178176956
                          6        0.114677E-05                  -9.546178176959
                          7        0.269739E-08                  -9.546178176959

 Energy components [Hartree]           Total Energy ::           -9.546178176959
                                        Band Energy ::           -2.056052167563
                                     Kinetic Energy ::            6.750514589450
                                   Potential Energy ::          -16.296692766410
                                      Virial (-V/T) ::            2.414140811114
                                        Core Energy ::          -15.541752718363
[...]
    163       H      4       1.000          0.541                         0.459
    164       H      4       1.000          0.541                         0.459
    165       C      3       4.000          2.971                         1.029
    166       C      3       4.000          2.971                         1.029
    167       C      3       4.000          2.971                         1.029
    168       C      3       4.000          2.971                         1.029
    169       F      5       7.000          7.384                        -0.384
    170       F      5       7.000          7.384                        -0.384
    171       F      5       7.000          7.384                        -0.384
    172       F      5       7.000          7.384                        -0.384
    173       F      5       7.000          7.290                        -0.290
    174       F      5       7.000          7.290                        -0.290
    175       F      5       7.000          7.290                        -0.290
    176       F      5       7.000          7.290                        -0.290
    177       F      5       7.000          7.339                        -0.339
    178       F      5       7.000          7.339                        -0.339
    179       F      5       7.000          7.339                        -0.339
    180       F      5       7.000          7.339                        -0.339
    181       C      3       4.000          2.970                         1.030
    182       C      3       4.000          2.970                         1.030
    183       C      3       4.000          2.970                         1.030
    184       C      3       4.000          2.970                         1.030
    185       F      5       7.000          7.315                        -0.315
    186       F      5       7.000          7.315                        -0.315
    187       F      5       7.000          7.315                        -0.315
    188       F      5       7.000          7.315                        -0.315
    189       F      5       7.000          7.366                        -0.366
    190       F      5       7.000          7.366                        -0.366
    191       F      5       7.000          7.366                        -0.366
    192       F      5       7.000          7.366                        -0.366
    193       F      5       7.000          7.336                        -0.336
    194       F      5       7.000          7.336                        -0.336
    195       F      5       7.000          7.336                        -0.336
    196       F      5       7.000          7.336                        -0.336

  Total Charge                                                           -0.000
 !-----------------------------------------------------------------------------!

 ENERGY| Total FORCE_EVAL ( QS ) energy [a.u.]:            -1395.861858345770770

 -------------------------------------------------------------------------------
 -                                                                             -
 -                                DBCSR STATISTICS                             -
 -                                                                             -
 -------------------------------------------------------------------------------
 COUNTER                                    TOTAL       BLAS       SMM       ACC
 flops     6 x    32 x     6          10845407232       0.0%    100.0%      0.0%
 flops     6 x     6 x    32          27790304256       0.0%    100.0%      0.0%
 flops     6 x    32 x    17          86505086976       0.0%    100.0%      0.0%
 flops    17 x    32 x     6          86505086976       0.0%    100.0%      0.0%
 flops     6 x    17 x    32         215901092352       0.0%    100.0%      0.0%
 flops    17 x     6 x    32         216103303680       0.0%    100.0%      0.0%
 flops    17 x    32 x    17         642461963264       0.0%    100.0%      0.0%
 flops    17 x    17 x    32        1617306331520       0.0%    100.0%      0.0%
 flops inhomo. stacks                           0       0.0%      0.0%      0.0%
 flops total                         2.903419E+12       0.0%    100.0%      0.0%
 flops max/rank                     41.608230E+09       0.0%    100.0%      0.0%
 matmuls inhomo. stacks                         0       0.0%      0.0%      0.0%
 matmuls total                          231624954       0.0%    100.0%      0.0%
 number of processed stacks              10053879       0.0%    100.0%      0.0%
 average stack size                                     0.0      23.0       0.0
 marketing flops                     5.604337E+12
 -------------------------------------------------------------------------------
 # multiplications                           1115
 max memory usage/rank               1.277051E+09
 # max total images/rank                        5
 # max 3D layers                                1
 # MPI messages exchanged                 5318550
 MPI messages size (bytes):
  total size                       271.269528E+09
  min size                           0.000000E+00
  max size                         415.208000E+03
  average size                      51.004414E+03
 MPI breakdown and total messages size (bytes):
             size <=      128             2918109                        0
       128 < size <=     8192                   0                        0
      8192 < size <=    32768              306900               6997647360
     32768 < size <=   131072             1624821             132812337152
    131072 < size <=  4194304              468720             131459609344
   4194304 < size <= 16777216                   0                        0
  16777216 < size                               0                        0
 -------------------------------------------------------------------------------

 *** WARNING in dbcsr_mm.F:291 :: Using a non-square number of MPI ranks ***
 *** might lead to poor performance. Used ranks: 90 Suggested: 81 169    ***

 -------------------------------------------------------------------------------
 -                                                                             -
 -                      DBCSR MESSAGE PASSING PERFORMANCE                      -
 -                                                                             -
 -------------------------------------------------------------------------------
 ROUTINE             CALLS      AVE VOLUME [Bytes]
 MP_Bcast                9                     12.
 MP_Allreduce         6999                      8.
 MP_Alltoall         23182                 153936.
 MP_ISend           127482                  26560.
 MP_IRecv           130084                  24327.
 -------------------------------------------------------------------------------

 -------------------------------------------------------------------------------
 -                                                                             -
 -                                DBM STATISTICS                               -
 -                                                                             -
 -------------------------------------------------------------------------------
    M  x    N  x    K                                          COUNT     PERCENT
 -------------------------------------------------------------------------------

 -------------------------------------------------------------------------------
 -                                                                             -
 -                                GRID STATISTICS                              -
 -                                                                             -
 -------------------------------------------------------------------------------
 LP    KERNEL             BACKEND                              COUNT     PERCENT
 2     collocate general  CPU                              133448834      26.02%
 2     integrate general  CPU                              129927405      25.33%
 1     collocate general  CPU                               72861440      14.21%
 1     integrate general  CPU                               70257388      13.70%
 3     integrate general  CPU                               39850163       7.77%
 3     collocate general  CPU                               34379304       6.70%
 0     collocate general  CPU                               13743656       2.68%
 0     integrate general  CPU                               12181828       2.38%
 4     integrate general  CPU                                3934564       0.77%
 4     collocate general  CPU                                2144158       0.42%
 5     integrate general  CPU                                 119252       0.02%
 -------------------------------------------------------------------------------

 MEMORY| Estimated peak process memory [MiB]                                1218

 -------------------------------------------------------------------------------
 ----                             MULTIGRID INFO                            ----
 -------------------------------------------------------------------------------
 count for grid        1:        7204796          cutoff [a.u.]          200.00
 count for grid        2:        6865471          cutoff [a.u.]           66.67
 count for grid        3:        5531980          cutoff [a.u.]           22.22
 count for grid        4:        1967170          cutoff [a.u.]            7.41
 total gridlevel count  :       21569417

 -------------------------------------------------------------------------------
 -                                                                             -
 -                         MESSAGE PASSING PERFORMANCE                         -
 -                                                                             -
 -------------------------------------------------------------------------------

 ROUTINE             CALLS      AVE VOLUME [Bytes]
 MP_Group                4
 MP_Bcast             2385                 374827.
 MP_Allreduce        27312                    259.
 MP_Sync               835
 MP_Alltoall         20068                1828977.
 MP_SendRecv        174618                   8150.
 MP_ISendRecv       156640                   8832.
 MP_Wait            243785
 MP_comm_split         831
 MP_ISend            66779                 147301.
 MP_IRecv            66779                 147301.
 -------------------------------------------------------------------------------


 -------------------------------------------------------------------------------
 -                                                                             -
 -                           R E F E R E N C E S                               -
 -                                                                             -
 -------------------------------------------------------------------------------
 
 CP2K version 2023.2, the CP2K developers group (2023).
 CP2K is freely available from https://www.cp2k.org/ .

 Kuehne,Thomas D.; Iannuzzi,Marcella; Del Ben,Mauro;
 Rybkin,Vladimir V.; Seewald,Patrick; Stein,Frederick; Laino,Teodoro;
 Khaliullin,Rustam Z.; Schuett,Ole; Schiffmann,Florian; Golze,Dorothea;
 Wilhelm,Jan; Chulkov,Sergey; Bani-Hashemian,Mohammad Hossein;
 Weber,Valery; Borstnik,Urban; Taillefumier,Mathieu;
 Jakobovits,Alice Shoshana; Lazzaro,Alfio; Pabst,Hans; Mueller,Tiziano;
 Schade,Robert; Guidon,Manuel; Andermatt,Samuel; Holmberg,Nico;
 Schenter,Gregory K.; Hehn,Anna; Bussy,Augustin; Belleflamme,Fabian;
 Tabacchi,Gloria; Gloess,Andreas; Lass,Michael; Bethune,Iain;
 Mundy,Christopher J.; Plessl,Christian; Watkins,Matt;
 VandeVondele,Joost; Krack,Matthias; Hutter,Juerg. 
 The Journal of Chemical Physics, 152 (19), (2020). 
 CP2K: An electronic structure and molecular dynamics software package -
 Quickstep: Efficient and accurate electronic structure calculations.
 https://doi.org/10.1063/5.0007045

 Goerigk, Lars; Hansen, Andreas; Bauer, Christoph; Ehrlich, Stephan;
 Najibi, Asim; Grimme, Stefan. , 19 (48), (2017). 
 A look at the density functional theory zoo with the advanced GMTKN55 database
 for general main group thermochemistry, kinetics and noncovalent interactions.
 https://doi.org/10.1039/C7CP04913G

 Schuett, Ole; Messmer, Peter; Hutter, Juerg; VandeVondele, Joost. 
 Electronic Structure Calculations on Graphics Processing Units, John
 Wiley & Sons, Ltd, 173-190 (2016). 
 GPU-Accelerated Sparse Matrix-Matrix Multiplication for
 Linear Scaling Density Functional Theory.
 https://doi.org/10.1002/9781118670712.ch8

 Heinecke, A; Henry, G; Hutchinson, M; Pabst, H. 
 Proceedings of Intl. Supercomputing Conference, 981-991 (2016). 
 LIBXSMM: Accelerating Small Matrix Multiplications
 by Runtime Code Generation.
 https://doi.org/10.1109/SC.2016.83

 Borstnik, U; VandeVondele, J; Weber, V; Hutter, J. 
 PARALLEL COMPUTING, 40 (5-6), 47-58 (2014). 
 Sparse matrix multiplication: The distributed block-compressed sparse
 row library.
 https://doi.org/10.1016/j.parco.2014.03.012

 Hutter, J; Iannuzzi, M; Schiffmann, F; VandeVondele, J. 
 WIREs Comput Mol Sci., 4 (1), 15-25 (2014). 
 CP2K: atomistic simulations of condensed matter systems.
 https://doi.org/10.1002/wcms.1159

 Grimme, S; Ehrlich, S; Goerigk, L. 
 JOURNAL OF COMPUTATIONAL CHEMISTRY, 32, 1456 (2011). 
 Effect of the damping function in dispersion corrected density functional theory.
 https://doi.org/10.1002/jcc.21759

 Grimme, S; Antony, J; Ehrlich, S; Krieg, H. 
 JOURNAL OF CHEMICAL PHYSICS, 132 (15), 154104 (2010). 
 A consistent and accurate ab initio parametrization of density
 functional dispersion correction (DFT-D) for the 94 elements H-Pu.
 https://doi.org/10.1063/1.3382344

 Kuhne, TD; Krack, M; Mohamed, FR; Parrinello, M. 
 PHYSICAL REVIEW LETTERS, 98 (6), 066401 (2007). 
 Efficient and accurate Car-Parrinello-like approach to
 Born-Oppenheimer molecular dynamics.
 https://doi.org/10.1103/PhysRevLett.98.066401

 Krack, M. 
 THEORETICAL CHEMISTRY ACCOUNTS, 114 (1-3), 145-152 (2005). 
 Pseudopotentials for H to Kr optimized for gradient-corrected
 exchange-correlation functionals.
 https://doi.org/10.1007/s00214-005-0655-y

 VandeVondele, J; Krack, M; Mohamed, F; Parrinello, M; Chassaing, T;
 Hutter, J. COMPUTER PHYSICS COMMUNICATIONS, 167 (2), 103-128 (2005). 
 QUICKSTEP: Fast and accurate density functional calculations using a
 mixed Gaussian and plane waves approach.
 https://doi.org/10.1016/j.cpc.2004.12.014

 Frigo, M; Johnson, SG. 
 PROCEEDINGS OF THE IEEE, 93 (2), 216-231 (2005). 
 The design and implementation of FFTW3.
 https://doi.org/10.1109/JPROC.2004.840301

 Kolafa, J. 
 JOURNAL OF COMPUTATIONAL CHEMISTRY, 25 (3), 335-342 (2004). 
 Time-reversible always stable predictor-corrector method for
 molecular dynamics of polarizable molecules.
 https://doi.org/10.1002/jcc.10385

 Hartwigsen, C; Goedecker, S; Hutter, J. 
 PHYSICAL REVIEW B, 58 (7), 3641-3662 (1998). 
 Relativistic separable dual-space Gaussian pseudopotentials from H to Rn.
 https://doi.org/10.1103/PhysRevB.58.3641

 Lippert, G; Hutter, J; Parrinello, M. 
 MOLECULAR PHYSICS, 92 (3), 477-487 (1997). 
 A hybrid Gaussian and plane wave density functional scheme.
 https://doi.org/10.1080/002689797170220

 Perdew, JP; Burke, K; Ernzerhof, M. 
 PHYSICAL REVIEW LETTERS, 77 (18), 3865-3868 (1996). 
 Generalized gradient approximation made simple.
 https://doi.org/10.1103/PhysRevLett.77.3865

 Goedecker, S; Teter, M; Hutter, J. 
 PHYSICAL REVIEW B, 54 (3), 1703-1710 (1996). 
 Separable dual-space Gaussian pseudopotentials.
 https://doi.org/10.1103/PhysRevB.54.1703

 BYRD, RH; LU, PH; NOCEDAL, J; ZHU, CY. 
 SIAM JOURNAL ON SCIENTIFIC COMPUTING, 16 (5), 1190-1208 (1995). 
 A LIMITED MEMORY ALGORITHM FOR BOUND CONSTRAINED OPTIMIZATION.
 https://doi.org/10.1137/0916069


 -------------------------------------------------------------------------------
 -                                                                             -
 -                                T I M I N G                                  -
 -                                                                             -
 -------------------------------------------------------------------------------
 SUBROUTINE                       CALLS  ASD         SELF TIME        TOTAL TIME
                                MAXIMUM       AVERAGE  MAXIMUM  AVERAGE  MAXIMUM
 CP2K                                 1  1.0    0.050    0.067 2333.106 2333.108
 cp_geo_opt                           1  2.0    0.005    0.005 2332.598 2332.600
 geoopt_lbfgs                         1  3.0    0.000    0.005 2332.593 2332.596
 cp_eval_at                          50  5.0    0.011    0.024 2332.403 2332.417
 qs_energies                         50  7.0    0.007    0.008 2309.898 2309.956
 cp_opt_gopt_step                    48  4.0    0.007    0.069 2287.820 2287.822
 qs_forces                           49  6.0    0.010    0.011 2287.618 2287.620
 scf_env_do_scf                      50  8.0    0.004    0.021 1269.377 1270.285
 scf_env_do_scf_inner_loop          831  9.0    0.025    0.206 1269.373 1270.264
 qs_energies_init_hamiltonians       50  8.0    0.004    0.005 1007.886 1007.887
 calculate_dispersion_pairpot        50  9.0  588.509  953.695 1003.620 1003.621
 qs_scf_new_mos                     831 10.0    0.012    0.018  804.556  805.041
 eigensolver                        831 11.0    0.059    0.083  769.405  769.601
 cp_fm_syevd                        831 12.0    0.007    0.010  628.670  629.465
 cp_fm_redistribute_end             831 13.0  314.039  625.918  314.761  626.461
 cp_fm_syevd_base                   831 13.0  311.396  623.818  311.396  623.818
 mp_sum_d                          9190 12.2  422.168  501.507  422.168  501.507
 rebuild_ks_matrix                  880 10.8    0.003    0.004  269.722  269.828
 qs_ks_build_kohn_sham_matrix       880 11.8    0.111    0.122  269.719  269.826
 qs_ks_update_qs_env                831 10.0    0.009    0.009  251.588  251.681
 qs_rho_update_rho_low              881 10.0    0.007    0.013  204.788  204.848
 calculate_rho_elec                 881 11.0    0.163    0.174  204.781  204.841
 sum_up_and_integrate               880 12.8    0.304    0.346  198.600  198.686
 integrate_v_rspace                 880 13.8    0.035    0.038  198.292  198.408
 grid_integrate_task_list           880 14.8  164.049  168.392  164.049  168.392
 grid_collocate_task_list           881 12.0  151.870  157.732  151.870  157.732
 cp_fm_cholesky_restore            2493 12.0  138.486  139.795  138.486  139.795
 pw_transfer                      17556 14.8    1.200    1.363   77.795   81.282
 fft_wrap_pw1pw2                  15796 15.9    0.152    0.170   76.229   79.557
 fft_wrap_pw1pw2_200              10513 17.2    9.602   10.626   67.667   71.066
 fft3d_ps                         15796 17.9   21.448   22.732   59.636   64.462
 qs_vxc_create                      880 12.8    0.026    0.029   59.750   60.500
 xc_vxc_pw_create                   880 13.8    0.344    0.406   59.724   60.478
 rs_pw_transfer                    7243 14.3    0.097    0.109   48.749   53.825
 density_rs2pw                      881 12.0    0.036    0.042   46.988   52.085
 -------------------------------------------------------------------------------

 The number of warnings for this run is : 1
 
 -------------------------------------------------------------------------------
  **** **** ******  **  PROGRAM ENDED AT                 2024-03-04 07:56:02.864
 ***** ** ***  *** **   PROGRAM RAN ON                              f6b448195612
 **    ****   ******    PROGRAM RAN BY                                 <unknown>
 ***** **    ** ** **   PROGRAM PROCESS ID                                   538
  **** **  *******  **  PROGRAM STOPPED IN                                  /mnt
