 DBCSR| CPU Multiplication driver                                           XSMM (U)
 DBCSR| Multrec recursion limit                                              512 (U)
 DBCSR| Multiplication stack size                                           1000 (D)
 DBCSR| Maximum elements for images                                    UNLIMITED (U)
 DBCSR| Multiplicative factor virtual images                                   1 (U)
 DBCSR| Use multiplication densification                                       T (D)
 DBCSR| Multiplication size stacks                                             3 (U)
 DBCSR| Use memory pool for CPU allocation                                     F (U)
 DBCSR| Number of 3D layers                                               SINGLE (U)
 DBCSR| Use MPI memory allocation                                              F (U)
 DBCSR| Use RMA algorithm                                                      F (U)
 DBCSR| Use Communication thread                                               T (U)
 DBCSR| Communication thread load                                             83 (D)
 DBCSR| MPI: My process id                                                     0
 DBCSR| MPI: Number of processes                                              88
 DBCSR| OMP: Current number of threads                                         2
 DBCSR| OMP: Max number of threads                                             2
 DBCSR| Split modifier for TAS multiplication algorithm                  1.0E+00 (U)


  **** **** ******  **  PROGRAM STARTED AT               2023-12-20 14:00:26.629
 ***** ** ***  *** **   PROGRAM STARTED ON                          3610df9f1bde
 **    ****   ******    PROGRAM STARTED BY                             <unknown>
 ***** **    ** ** **   PROGRAM PROCESS ID                                   538
  **** **  *******  **  PROGRAM STARTED IN                                  /mnt

 CP2K| version string:                                       CP2K version 2023.2
 CP2K| source code revision number:                                  git:65cca6c
 CP2K| cp2kflags: omp libint fftw3 libxc pexsi elpa parallel scalapack cosma qui
 CP2K|            p xsmm plumed2 spglib sirius libvori libbqb libtorch libvdwxc
 CP2K| is freely available from                            https://www.cp2k.org/
 CP2K| Program compiled at                          Wed Oct 18 11:40:41 UTC 2023
 CP2K| Program compiled on                                          633bb7bf566f
 CP2K| Program compiled for                                                local
 CP2K| Data directory path                                        /opt/cp2k/data
 CP2K| Input file name                                          mo_4AMP15_0m.inp

 GLOBAL| Force Environment number                                              1
 GLOBAL| Basis set file name                                      GTH_BASIS_SETS
 GLOBAL| Potential file name                                           POTENTIAL
 GLOBAL| MM Potential file name                                     MM_POTENTIAL
 GLOBAL| Coordinate file name                                      __STD_INPUT__
 GLOBAL| Method name                                                        CP2K
 GLOBAL| Project name                                               mo_4AMP15_0m
 GLOBAL| Run type                                                         ENERGY
 GLOBAL| FFT library                                                       FFTW3
 GLOBAL| Diagonalization library                                            ELPA
 GLOBAL| DGEMM library                                                      BLAS
 GLOBAL| Minimum number of eigenvectors for ELPA usage                        16
 GLOBAL| Orthonormality check for eigenvectors                          DISABLED
 GLOBAL| Matrix multiplication library                                     COSMA
 GLOBAL| All-to-all communication in single precision                          F
 GLOBAL| FFTs using library dependent lengths                                  F
 GLOBAL| Grid backend                                                       AUTO
 GLOBAL| Global print level                                                  LOW
 GLOBAL| MPI I/O enabled                                                       T
 GLOBAL| Total number of message passing processes                            88
 GLOBAL| Number of threads for this process                                    2
 GLOBAL| This output is from process                                           0
 GLOBAL| Stack size for threads created by OpenMP (OMP_STACKSIZE)            16M
 GLOBAL| CPU model name                         AMD EPYC 9V33X 96-Core Processor
 GLOBAL| CPUID                                                              1003
 GLOBAL| Compiled for CPUID                                                    0

 *** HINT in environment.F:904 :: The compiler target flags (generic) used ***
 *** to build this binary cannot exploit all extensions of this CPU model  ***
 *** (x86_avx512). Consider compiler target flags as part of FCFLAGS and   ***
 *** CFLAGS (ARCH file).                                                   ***


 MEMORY| system memory details [Kb]
 MEMORY|                        rank 0           min           max       average
 MEMORY| MemTotal           1444892880    1444892880    1444892880    1444892880
 MEMORY| MemFree            1425039804    1425039804    1425039804    1425039804
 MEMORY| Buffers                 28244         28244         28244         28244
 MEMORY| Cached                 812492        812492        812492        812492
 MEMORY| Slab                  1041136       1041136       1041136       1041136
 MEMORY| SReclaimable           114900        114900        114900        114900
 MEMORY| MemLikelyFree      1425995440    1425995440    1425995440    1425995440


 GENERATE|  Preliminary Number of Bonds generated:                             0
 GENERATE|  Achieved consistency in connectivity generation.

 *******************************************************************************
 *******************************************************************************
 **                                                                           **
 **     #####                         ##              ##                      **
 **    ##   ##            ##          ##              ##                      **
 **   ##     ##                       ##            ######                    **
 **   ##     ##  ##   ##  ##   #####  ##  ##   ####   ##    #####    #####    **
 **   ##     ##  ##   ##  ##  ##      ## ##   ##      ##   ##   ##  ##   ##   **
 **   ##  ## ##  ##   ##  ##  ##      ####     ###    ##   ######   ######    **
 **    ##  ###   ##   ##  ##  ##      ## ##      ##   ##   ##       ##        **
 **     #######   #####   ##   #####  ##  ##  ####    ##    #####   ##        **
 **           ##                                                    ##        **
 **                                                                           **
 **                                                ... make the atoms dance   **
 **                                                                           **
 **            Copyright (C) by CP2K developers group (2000-2023)             **
 **                      J. Chem. Phys. 152, 194103 (2020)                    **
 **                                                                           **
 *******************************************************************************


 TOTAL NUMBERS AND MAXIMUM NUMBERS

  Total number of            - Atomic kinds:                                   4
                             - Atoms:                                        196
                             - Shell sets:                                   392
                             - Shells:                                      1120
                             - Primitive Cartesian functions:               1176
                             - Cartesian basis functions:                   2520
                             - Spherical basis functions:                   2408

  Maximum angular momentum of- Orbital basis functions:                        2
                             - Local part of the GTH pseudopotential:          2
                             - Non-local part of the GTH pseudopotential:      0


 SCF PARAMETERS         Density guess:                                    ATOMIC
                        --------------------------------------------------------
                        max_scf:                                             128
                        max_scf_history:                                       0
                        max_diis:                                              4
                        --------------------------------------------------------
                        eps_scf:                                        1.00E-06
                        eps_scf_history:                                0.00E+00
                        eps_diis:                                       1.00E-01
                        eps_eigval:                                     1.00E-05
                        --------------------------------------------------------
                        level_shift [a.u.]:                             0.000000
                        added MOs                                        30    0
                        --------------------------------------------------------
                        Mixing method:                            BROYDEN_MIXING
                                                charge density mixing in g-space
                        --------------------------------------------------------
                        No outer SCF

 Number of electrons:                                                        560
 Number of occupied orbitals:                                                280
 Number of molecular orbitals:                                               310

 Number of orbital functions:                                               2408
 Number of independent orbital functions:                                   2408

 Extrapolation method: initial_guess


 SCF WAVEFUNCTION OPTIMIZATION

  Step     Update method      Time    Convergence         Total energy    Change
  ------------------------------------------------------------------------------

 *** WARNING in fm/cp_fm_elpa.F:522 :: Setting real_kernel for ELPA failed ***

     1 NoMix/Diag. 0.40E+00    0.8    16.51148911      -823.7286662304 -8.24E+02

 *** WARNING in fm/cp_fm_elpa.F:522 :: Setting real_kernel for ELPA failed ***

     2 Broy./Diag. 0.40E+00    1.1     2.23853890      -742.5600208033  8.12E+01

 *** WARNING in fm/cp_fm_elpa.F:522 :: Setting real_kernel for ELPA failed ***

     3 Broy./Diag. 0.40E+00    1.4     1.20059681      -802.9321384284 -6.04E+01

 *** WARNING in fm/cp_fm_elpa.F:522 :: Setting real_kernel for ELPA failed ***

     4 Broy./Diag. 0.40E+00    1.2     0.41405927      -824.7831955478 -2.19E+01

 *** WARNING in fm/cp_fm_elpa.F:522 :: Setting real_kernel for ELPA failed ***

     5 Broy./Diag. 0.40E+00    1.3     0.38960996      -827.1412053564 -2.36E+00

 *** WARNING in fm/cp_fm_elpa.F:522 :: Setting real_kernel for ELPA failed ***

     6 Broy./Diag. 0.40E+00    1.1     0.15109136      -825.9524526811  1.19E+00

 *** WARNING in fm/cp_fm_elpa.F:522 :: Setting real_kernel for ELPA failed ***

     7 Broy./Diag. 0.40E+00    1.6     0.07575314      -825.7435178705  2.09E-01

 *** WARNING in fm/cp_fm_elpa.F:522 :: Setting real_kernel for ELPA failed ***

     8 Broy./Diag. 0.40E+00    1.6     0.03027320      -825.7233773557  2.01E-02

 *** WARNING in fm/cp_fm_elpa.F:522 :: Setting real_kernel for ELPA failed ***

     9 Broy./Diag. 0.40E+00    1.2     0.01748822      -825.7597326017 -3.64E-02

 *** WARNING in fm/cp_fm_elpa.F:522 :: Setting real_kernel for ELPA failed ***

    10 Broy./Diag. 0.40E+00    1.2     0.01279189      -825.7777120351 -1.80E-02

 *** WARNING in fm/cp_fm_elpa.F:522 :: Setting real_kernel for ELPA failed ***

    11 Broy./Diag. 0.40E+00    1.5     0.00564462      -825.7808218199 -3.11E-03

 *** WARNING in fm/cp_fm_elpa.F:522 :: Setting real_kernel for ELPA failed ***

    12 Broy./Diag. 0.40E+00    1.1     0.00237046      -825.7807270376  9.48E-05

 *** WARNING in fm/cp_fm_elpa.F:522 :: Setting real_kernel for ELPA failed ***

    13 Broy./Diag. 0.40E+00    1.1     0.00097870      -825.7796526684  1.07E-03

 *** WARNING in fm/cp_fm_elpa.F:522 :: Setting real_kernel for ELPA failed ***

    14 Broy./Diag. 0.40E+00    1.1     0.00046974      -825.7789273661  7.25E-04

 *** WARNING in fm/cp_fm_elpa.F:522 :: Setting real_kernel for ELPA failed ***

    15 Broy./Diag. 0.40E+00    1.0     0.00016965      -825.7785707130  3.57E-04

 *** WARNING in fm/cp_fm_elpa.F:522 :: Setting real_kernel for ELPA failed ***

    16 Broy./Diag. 0.40E+00    1.3     0.00008300      -825.7786318666 -6.12E-05

 *** WARNING in fm/cp_fm_elpa.F:522 :: Setting real_kernel for ELPA failed ***

    17 Broy./Diag. 0.40E+00    1.7     0.00005357      -825.7787375517 -1.06E-04

 *** WARNING in fm/cp_fm_elpa.F:522 :: Setting real_kernel for ELPA failed ***

    18 Broy./Diag. 0.40E+00    1.0     0.00001983      -825.7787569191 -1.94E-05

 *** WARNING in fm/cp_fm_elpa.F:522 :: Setting real_kernel for ELPA failed ***

    19 Broy./Diag. 0.40E+00    1.0     0.00000545      -825.7787526440  4.28E-06

 *** WARNING in fm/cp_fm_elpa.F:522 :: Setting real_kernel for ELPA failed ***

    20 Broy./Diag. 0.40E+00    1.1     0.00000333      -825.7787449679  7.68E-06

 *** WARNING in fm/cp_fm_elpa.F:522 :: Setting real_kernel for ELPA failed ***

    21 Broy./Diag. 0.40E+00    1.4     0.00000220      -825.7787437757  1.19E-06

 *** WARNING in fm/cp_fm_elpa.F:522 :: Setting real_kernel for ELPA failed ***

    22 Broy./Diag. 0.40E+00    1.0     0.00000067      -825.7787445898 -8.14E-07

  *** SCF run converged in    22 steps ***


  Electronic density on regular grids:       -559.9999999679        0.0000000321
  Core density on regular grids:              559.9999999996       -0.0000000004
  Total charge density on r-space grids:        0.0000000317
  Total charge density g-space grids:           0.0000000317

  Overlap energy of the core charge distribution:               0.00133221693382
  Self energy of the core charge distribution:              -1996.35753382145731
  Core Hamiltonian energy:                                    642.02425789178074
  Hartree energy:                                             785.55998846357170
  Exchange-correlation energy:                               -257.00678934059198

  Total energy:                                              -825.77874458976294

 *******************************************************************************
 **                                                                           **
 **         ######## #######   #######   ######## #######  ########           **
 **            ##    ##     ## ##     ## ##       ##   ##     ##              **
 **            ##    ##     ## ##     ## ######   #######     ##              **
 **            ##    ##     ## ##     ## ##       ##          ##              **
 **            ##    #######   #######   ##       ##          ##              **
 **                                                                           **
 *******************************************************************************
 KERNEL|                                                                    FULL
 FUNCTIONAL| PBE:
 FUNCTIONAL| J.P.Perdew, K.Burke, M.Ernzerhof, Phys. Rev. Letter, vol. 77, n 18,
 FUNCTIONAL|  pp. 3865-3868, (1996){spin unpolarized}
 KERNEL| Spin symmetry of excitations                                    Singlet
 TDDFPT| Number of states calculated                                          50
 TDDFPT| Number of Davidson iterations                                        50
 TDDFPT| Davidson iteration convergence                                0.367E-05
 TDDFPT| Max. number of Krylov space vectors                                5000

 *** WARNING in fm/cp_fm_elpa.F:522 :: Setting real_kernel for ELPA failed ***

 TDDFPT| Molecular Orbitals:        Spin       AOs       Occ      Virt     Total
 TDDFPT|                               1      2408       280      2128      2408

 -------------------------------------------------------------------------------
 -                            TDDFPT Initial Guess                             -
 -------------------------------------------------------------------------------
          State         Occupied      ->      Virtual          Excitation
          number         orbital              orbital          energy (eV)
 -------------------------------------------------------------------------------
             1              280                  281              2.55924
             2              280                  282              2.56061
             3              279                  281              2.56498
             4              279                  282              2.56635
             5              280                  283              2.58113
             6              280                  284              2.58406
             7              279                  283              2.58688
             8              279                  284              2.58980
             9              278                  281              2.68208
            10              278                  282              2.68345
            11              277                  281              2.68696
            12              277                  282              2.68833
            13              278                  283              2.70397
            14              278                  284              2.70690
            15              277                  283              2.70885
            16              277                  284              2.71178
            17              276                  281              2.77861
            18              276                  282              2.77998
            19              275                  281              2.79692
            20              274                  281              2.79745
            21              275                  282              2.79830
            22              273                  281              2.79876
            23              274                  282              2.79882
            24              273                  282              2.80013
            25              276                  283              2.80050
            26              276                  284              2.80343
            27              275                  283              2.81882
            28              274                  283              2.81934
            29              273                  283              2.82065
            30              275                  284              2.82174
            31              274                  284              2.82227
            32              273                  284              2.82358
            33              272                  281              2.82385
            34              272                  282              2.82522
            35              271                  281              2.82864
            36              271                  282              2.83001
            37              272                  283              2.84575
            38              270                  281              2.84863
            39              272                  284              2.84867
            40              270                  282              2.85000
            41              271                  283              2.85053
            42              271                  284              2.85346
            43              269                  281              2.86359
            44              269                  282              2.86496
            45              268                  281              2.86838
            46              268                  282              2.86976
            47              267                  281              2.87021
            48              270                  283              2.87052
            49              267                  282              2.87158
            50              270                  284              2.87345

      Number of active states:                                     595840
 -------------------------------------------------------------------------------

 -------------------------------------------------------------------------------
 -                      TDDFPT WAVEFUNCTION OPTIMIZATION                       -
 -------------------------------------------------------------------------------

          Step            Time         Convergence           Conv. states
 -------------------------------------------------------------------------------

 *** WARNING in fm/cp_fm_elpa.F:522 :: Setting real_kernel for ELPA failed ***

             1            34.8          2.0316E-02                      0

 *** WARNING in fm/cp_fm_elpa.F:522 :: Setting real_kernel for ELPA failed ***

             2            33.3          1.8230E-02                      0

 *** WARNING in fm/cp_fm_elpa.F:522 :: Setting real_kernel for ELPA failed ***

             3            37.6          1.2846E-03                      3

 *** WARNING in fm/cp_fm_elpa.F:522 :: Setting real_kernel for ELPA failed ***

             4            33.3          1.4429E-04                     44

 *** WARNING in fm/cp_fm_elpa.F:522 :: Setting real_kernel for ELPA failed ***

             5            31.5          1.3103E-06                     50
 ------------------------- Restart Davidson iterations -------------------------

 *** WARNING in fm/cp_fm_elpa.F:522 :: Setting real_kernel for ELPA failed ***

             6            29.0          1.2074E-15                     50

 -------------------------------------------------------------------------------
 -  TDDFPT run converged in 6 iteration(s)
 -------------------------------------------------------------------------------

 R-TDDFPT states of multiplicity 1
 Transition dipoles calculated using velocity formulation

         State    Excitation        Transition dipole (a.u.)        Oscillator
         number   energy (eV)       x           y           z     strength (a.u.)
         ------------------------------------------------------------------------
 TDDFPT|      1       2.56979  -4.0140E-01  4.8678E-09  2.7101E-01   1.47680E-02
 TDDFPT|      2       2.57247   7.6816E-08  8.9054E-03 -5.0055E-08   4.99818E-06
 TDDFPT|      3       2.57281  -6.5557E-07 -1.1115E-07  4.3260E-07   3.96642E-14
 TDDFPT|      4       2.57480  -5.6311E-07 -1.8726E-08  3.7148E-07   2.87295E-14
 TDDFPT|      5       2.60898   1.2930E-06  8.6519E-07 -6.3995E-07   1.80892E-13
 TDDFPT|      6       2.61036   2.1474E-06  1.4016E-06 -1.0812E-06   4.95308E-13
 TDDFPT|      7       2.61224  -6.5331E-01 -1.7749E-07  3.2945E-01   3.42617E-02
 TDDFPT|      8       2.61295  -2.0725E-07  5.3539E-01  1.0449E-07   1.83494E-02
 TDDFPT|      9       2.69690   4.6681E-07  2.4015E-07  8.4418E-08   1.86794E-14
 TDDFPT|     10       2.69836   8.7163E-08 -1.1218E-01  9.0183E-09   8.31924E-04
 TDDFPT|     11       2.69863   4.4587E-07 -2.7793E-06  6.6403E-08   5.24137E-13
 TDDFPT|     12       2.70013   2.2523E-01  4.4468E-08  3.1839E-02   3.42275E-03
 TDDFPT|     13       2.76595  -5.0888E-01 -3.6995E-07  3.2250E-01   2.45959E-02
 TDDFPT|     14       2.76789   1.4142E-06 -5.0366E-06 -9.7700E-07   1.92059E-12
 TDDFPT|     15       2.76824  -1.8835E-06  4.3691E-06  1.2607E-06   1.64303E-12
 TDDFPT|     16       2.76911   2.6955E-07 -7.0613E-01 -1.7130E-07   3.38272E-02
 TDDFPT|     17       2.79439  -6.7579E-01 -4.3078E-07 -8.4438E-02   3.17538E-02
 TDDFPT|     18       2.79641  -6.3563E-07  4.5763E-01 -7.8738E-08   1.43477E-02
 TDDFPT|     19       2.80568   1.4471E-06 -2.8767E-07  2.6716E-07   1.54547E-13
 TDDFPT|     20       2.80680  -5.4391E-01 -1.0369E-07 -8.7220E-02   2.08668E-02
 TDDFPT|     21       2.80697   7.7381E-06  1.0743E-06  1.0781E-06   4.27707E-12
 TDDFPT|     22       2.80860  -1.6232E-07  5.6438E-01 -5.8534E-09   2.19175E-02
 TDDFPT|     23       2.82125  -3.7400E-07 -3.0965E-08  1.6098E-07   1.15256E-14
 TDDFPT|     24       2.82216   3.5194E-07  1.3259E-07 -1.9982E-07   1.25400E-14
 TDDFPT|     25       2.82516  -7.0568E-01 -4.1712E-09  4.4218E-01   4.80013E-02
 TDDFPT|     26       2.82664  -1.8651E-07 -7.8825E-02  1.0207E-07   4.30286E-04
 TDDFPT|     27       2.82901  -5.7595E-07  2.7848E-07  1.7226E-07   3.04231E-14
 TDDFPT|     28       2.82987   1.8880E-06 -7.1452E-09 -1.0243E-06   3.19880E-13
 TDDFPT|     29       2.83028  -9.6425E-08 -2.9137E-07  3.0284E-07   1.28907E-14
 TDDFPT|     30       2.83099  -1.8671E-07 -1.7038E-07  2.5326E-07   8.88004E-15
 TDDFPT|     31       2.83681   6.2671E-02  1.7698E-07 -3.7741E-01   1.01725E-02
 TDDFPT|     32       2.84045  -3.5807E-08 -4.5175E-01 -1.4009E-07   1.42015E-02
 TDDFPT|     33       2.84611   3.2302E-01  4.3743E-08  4.2962E-01   2.01457E-02
 TDDFPT|     34       2.84825   9.4804E-09 -2.1470E-01  8.2556E-08   3.21673E-03
 TDDFPT|     35       2.85379  -6.1979E-08  1.6709E-08  4.6281E-08   4.37858E-16
 TDDFPT|     36       2.85480   7.3115E-08 -1.6236E-07 -9.1290E-10   2.21766E-15
 TDDFPT|     37       2.85570  -2.6298E-07 -3.8123E-07  2.4823E-08   1.50502E-14
 TDDFPT|     38       2.85585  -4.0512E-07 -1.7998E-07 -4.3411E-07   2.69356E-14
 TDDFPT|     39       2.86210  -3.4129E-07 -1.1046E-07 -5.1583E-08   9.20940E-15
 TDDFPT|     40       2.86334  -1.7751E-07 -2.8706E-01  5.7574E-08   5.78063E-03
 TDDFPT|     41       2.86338  -4.2958E-07  1.6874E-05  1.3595E-07   1.99880E-11
 TDDFPT|     42       2.86466   3.7309E-01 -2.0140E-07 -8.5481E-02   1.02821E-02
 TDDFPT|     43       2.88153  -1.9931E-01 -4.6076E-07 -1.1899E-01   3.80401E-03
 TDDFPT|     44       2.88215  -3.1960E-07  2.4147E-01 -2.2565E-07   4.11735E-03
 TDDFPT|     45       2.88598   6.4127E-07  1.9770E-01 -1.0495E-06   2.76360E-03
 TDDFPT|     46       2.88627   9.6581E-02 -1.3567E-06 -1.5432E-01   2.34365E-03
 TDDFPT|     47       2.89299   5.2061E-08  2.5453E-08 -3.1459E-08   3.08164E-16
 TDDFPT|     48       2.89432  -6.4629E-08  7.1307E-08 -1.1481E-07   1.59136E-15
 TDDFPT|     49       2.90610   1.6329E-07 -2.3065E-08 -4.3991E-08   2.07415E-15
 TDDFPT|     50       2.90686   1.3591E-08  1.1762E-07  6.8214E-08   1.32983E-15

 TDDFPT : CheckSum  =  0.725025E+00

 -------------------------------------------------------------------------------
 -                            Excitation analysis                              -
 -------------------------------------------------------------------------------
        State             Occupied              Virtual             Excitation
        number             orbital              orbital             amplitude
 -------------------------------------------------------------------------------
             1   2.56979 eV
                               280                  281               0.881150
                               279                  283               0.459816
                               277                  282              -0.085059
                               278                  284               0.054561
                               276                  281              -0.018905
                               279                  285               0.013329
                               270                  283               0.012925
                               280                  286               0.012856
                               272                  284              -0.011753
                               268                  284              -0.010718
             2   2.57247 eV
                               280                  282               0.877961
                               279                  284               0.461084
                               277                  281              -0.098549
                               278                  283               0.067037
                               276                  282              -0.020408
                               279                  287               0.013944
                               270                  284               0.013752
                               267                  284               0.013714
                               280                  288               0.013423
                               268                  283              -0.011728
                               272                  283              -0.011407
                               278                  285               0.010495
             3   2.57281 eV
                               279                  281              -0.815386
                               280                  283              -0.574335
                               278                  282               0.056906
                               277                  284              -0.029012
                               269                  283               0.014556
                               274                  281              -0.012326
                               266                  284               0.011631
                               271                  284               0.010146
             4   2.57480 eV
                               279                  282               0.829875
                               280                  284               0.550930
                               278                  281              -0.070613
                               277                  283               0.038589
                               269                  284              -0.015365
                               274                  282               0.012945
                               266                  283              -0.012494
                               271                  283              -0.010641
             5   2.60898 eV
                               280                  284               0.788155
                               279                  282              -0.485087
                               278                  281               0.293131
                               277                  283              -0.216605
                               276                  284              -0.040984
                               279                  288              -0.032087
                               280                  287              -0.031733
                               272                  281              -0.029393
                               267                  282               0.024946
                               269                  284               0.024785
                               266                  283               0.023756
                               274                  282              -0.022344
                               278                  286              -0.022100
                               277                  285              -0.019713
                               271                  285               0.017246
                               270                  282               0.015555
                               273                  283              -0.014153
                               271                  283               0.012829
                               265                  281              -0.011960
                               272                  286               0.011615
             6   2.61036 eV
                               280                  283               0.768775
                               279                  281              -0.509586
                               278                  282               0.297664
                               277                  284              -0.217333
                               280                  285              -0.041153
                               279                  286              -0.041013
                               276                  283              -0.036749
                               272                  282              -0.034406
                               278                  288              -0.027395
                               269                  283               0.025662
                               277                  287              -0.025427
                               267                  281               0.025367
                               266                  284               0.024263
                               274                  281              -0.021675
                               273                  284              -0.020677
                               271                  287               0.019511
                               271                  284               0.015401
                               265                  282              -0.014776
                               272                  288               0.014085
                               270                  281               0.013126
                               276                  285               0.011260
             7   2.61224 eV
                               279                  283              -0.840811
                               280                  281               0.394014
                               277                  282              -0.278203
                               278                  284               0.221757
                               280                  286               0.036019
                               279                  285               0.035756
                               269                  281               0.032590
                               276                  281              -0.032004
                               266                  282               0.027178
                               274                  283              -0.024943
                               278                  287               0.024719
                               267                  283               0.024653
                               277                  288               0.023298
                               272                  284              -0.022761
                               271                  282               0.020042
                               265                  284              -0.017786
                               271                  288              -0.017748
                               272                  287              -0.013814
             8   2.61295 eV
                               279                  284               0.838625
                               280                  282              -0.385592
                               277                  281               0.286110
                               278                  283              -0.235364
                               276                  282               0.035289
                               269                  282              -0.032998
                               274                  284               0.031584
                               279                  287              -0.030269
                               280                  288              -0.030088
                               267                  284              -0.029213
                               266                  281              -0.028683
                               271                  281              -0.022505
                               265                  283               0.020492
                               278                  285              -0.019976
                               277                  286              -0.019418
                               272                  283               0.018908
                               271                  286               0.015055
                               272                  285               0.011050
             9   2.69690 eV
                               278                  281               0.769915
                               277                  283               0.622794
                               279                  282               0.074557
                               280                  284              -0.063024
                               274                  282               0.060803
                               269                  284              -0.044898
                               266                  283              -0.033207
                               271                  283              -0.027028
                               273                  283              -0.019229
                               270                  282               0.016090
                               272                  281              -0.015241
                               268                  281              -0.014874
                               280                  287               0.014568
                               279                  288               0.013737
                               277                  285               0.010112
            10   2.69836 eV
                               277                  281              -0.736233
                               278                  283              -0.666801
                               276                  282               0.059722
                               280                  282              -0.048248
                               279                  284               0.038506
                               275                  282               0.034484
                               270                  284              -0.032393
                               272                  283               0.029748
                               268                  283               0.025948
                               271                  281               0.025682
                               274                  284              -0.013656
                               273                  281               0.013566
                               267                  284              -0.011103
                               269                  282               0.010947
                               279                  287              -0.010414
            11   2.69863 eV
                               278                  282              -0.779874
                               277                  284              -0.608210
                               279                  281              -0.078453
                               280                  283               0.070276
                               274                  281              -0.066408
                               269                  283               0.046969
                               266                  284               0.035479
                               271                  284               0.025251
                               273                  284               0.016751
                               272                  282               0.015750
                               280                  285              -0.015701
                               279                  286              -0.014748
                               270                  281              -0.014371
                               268                  282               0.012495
                               265                  282              -0.010570
            12   2.70013 eV
                               277                  282              -0.749108
                               278                  284              -0.650828
                               276                  281               0.064139
                               280                  281              -0.052572
                               279                  283               0.047090
                               275                  281               0.035129
                               270                  283              -0.034315
                               272                  284               0.030523
                               268                  284               0.027153
                               271                  282               0.025046
                               273                  282               0.016603
                               267                  283              -0.013496
                               279                  285              -0.011793
                               280                  286              -0.010546
            13   2.76595 eV
                               278                  284              -0.602150
                               276                  281              -0.479560
                               277                  282               0.451173
                               274                  283              -0.223147
                               279                  283              -0.184522
                               280                  281               0.157351
                               275                  281              -0.155411
                               269                  281               0.133416
                               273                  282               0.091731
                               266                  282               0.082415
                               271                  282               0.079456
                               279                  285               0.065893
                               280                  286               0.065188
                               267                  283               0.061535
                               270                  283               0.049508
                               272                  284              -0.048901
                               265                  284              -0.041914
                               268                  284              -0.040404
                               278                  287               0.039899
                               277                  288               0.036546
                               271                  288              -0.036055
                               272                  287              -0.028800
                               274                  285               0.024195
                               275                  286              -0.020562
                               276                  286              -0.020362
                               268                  287               0.017585
                               265                  287               0.011774
                               270                  285              -0.011528
                               269                  286               0.010729
                               266                  288               0.010332
                               273                  288               0.010192
                               265                  291               0.010135
                               260                  281              -0.010128
            14   2.76789 eV
                               277                  284              -0.662179
                               278                  282               0.438495
                               274                  281               0.352636
                               276                  283               0.312460
                               280                  283              -0.184666
                               279                  281               0.173586
                               269                  283              -0.109755
                               272                  282               0.108118
                               270                  281              -0.106747
                               275                  283               0.085415
                               266                  284              -0.082194
                               268                  282               0.073984
                               279                  286               0.071781
                               280                  285               0.070089
                               267                  281              -0.061499
                               278                  288               0.042333
                               271                  287              -0.039291
                               277                  287               0.037037
                               265                  282               0.028517
                               272                  288              -0.028468
                               271                  284              -0.027429
                               276                  285              -0.024471
                               274                  286               0.024182
                               275                  285              -0.022518
                               268                  288               0.021274
                               270                  286              -0.015216
                               269                  285               0.014350
                               266                  287               0.014255
                               265                  288               0.012746
                               276                  292               0.011781
                               273                  287               0.011275
                               266                  291               0.010123
            15   2.76824 eV
                               277                  283               0.650232
                               278                  281              -0.453534
                               274                  282              -0.339521
                               276                  284              -0.320355
                               280                  284               0.182402
                               279                  282              -0.177165
                               272                  281              -0.125653
                               269                  284               0.113139
                               270                  282               0.102818
                               275                  284              -0.086240
                               266                  283               0.082384
                               280                  287              -0.075447
                               279                  288              -0.075412
                               267                  282               0.066837
                               268                  281              -0.064282
                               278                  286              -0.050647
                               271                  283               0.045373
                               277                  285              -0.045024
                               271                  285               0.036741
                               272                  286               0.026610
                               265                  281              -0.023402
                               275                  287               0.019345
                               268                  286              -0.017971
                               273                  283               0.016116
                               276                  287               0.014554
                               274                  288              -0.014428
                               257                  281               0.014022
                               260                  284              -0.013464
                               273                  285              -0.013002
                               259                  282               0.010932
                               270                  288               0.010923
                               258                  283              -0.010406
            16   2.76911 eV
                               278                  283              -0.559248
                               276                  282              -0.531131
                               277                  281               0.439861
                               274                  284              -0.232379
                               279                  284              -0.176541
                               280                  282               0.160798
                               275                  282              -0.133896
                               269                  282               0.131473
                               271                  281               0.123875
                               273                  281               0.096945
                               266                  281               0.078646
                               279                  287               0.073048
                               280                  288               0.071359
                               267                  284               0.065309
                               272                  283              -0.058243
                               270                  284               0.050508
                               278                  285               0.046867
                               277                  286               0.044583
                               265                  283              -0.039035
                               268                  283              -0.034201
                               271                  286              -0.032703
                               272                  285              -0.026166
                               275                  288              -0.016928
                               260                  282              -0.016374
                               257                  283               0.014922
                               258                  281              -0.014886
                               259                  284               0.014355
                               274                  287               0.014297
                               268                  285               0.013807
                               276                  288              -0.011800
                               273                  286               0.011523
                               261                  281               0.010354
            17   2.79439 eV
                               276                  281               0.625096
                               273                  282              -0.525826
                               275                  281              -0.406959
                               274                  283              -0.250322
                               278                  284              -0.168179
                               277                  282               0.153858
                               269                  281               0.099850
                               267                  283               0.099310
                               266                  282               0.080367
                               279                  283              -0.064534
                               272                  284              -0.064414
                               265                  284              -0.062446
                               271                  282              -0.061681
                               280                  281               0.058526
                               270                  283               0.050443
                               268                  284              -0.047423
                               279                  285               0.019649
                               280                  286               0.019308
                               278                  287               0.014440
                               277                  288               0.012219
            18   2.79641 eV
                               273                  281               0.609299
                               276                  282              -0.510773
                               275                  282               0.471714
                               274                  284               0.233124
                               278                  283               0.161635
                               277                  281              -0.146258
                               269                  282              -0.108812
                               267                  284              -0.084723
                               266                  281              -0.083245
                               279                  284               0.062444
                               280                  282              -0.057760
                               272                  283               0.053175
                               265                  283               0.052419
                               270                  284              -0.031832
                               268                  283               0.031014
                               271                  281               0.022063
                               279                  287              -0.021473
                               280                  288              -0.020965
                               278                  285              -0.014538
                               277                  286              -0.012580
            19   2.80568 eV
                               274                  281               0.676852
                               276                  283              -0.630567
                               273                  284               0.259136
                               272                  282               0.213013
                               271                  284               0.083910
                               269                  283               0.083352
                               270                  281              -0.060611
                               275                  283              -0.057957
                               278                  282              -0.055343
                               268                  282               0.042692
                               267                  281              -0.041591
                               266                  284               0.038985
                               277                  284               0.033144
                               279                  281              -0.022539
                               280                  283               0.016570
                               280                  285              -0.011980
                               279                  286              -0.010653
            20   2.80680 eV
                               275                  281               0.633915
                               276                  281               0.414850
                               273                  282               0.366651
                               274                  283              -0.296149
                               271                  282              -0.279717
                               277                  282               0.160869
                               270                  283               0.150750
                               272                  284              -0.142613
                               278                  284              -0.138858
                               268                  284              -0.110508
                               267                  283               0.096583
                               280                  281               0.061748
                               279                  283              -0.061155
                               269                  281               0.047574
                               265                  284              -0.044083
                               266                  282               0.039017
                               279                  285               0.023434
                               280                  286               0.021420
                               278                  287               0.016490
                               271                  288              -0.013476
                               277                  288               0.011835
                               275                  286              -0.010622
            21   2.80697 eV
                               274                  282               0.700117
                               276                  284              -0.582201
                               273                  283               0.300721
                               272                  281               0.227607
                               269                  284               0.082909
                               271                  283               0.079141
                               278                  281              -0.057877
                               275                  284              -0.053512
                               270                  282              -0.048045
                               266                  283               0.044511
                               277                  283               0.039839
                               268                  281               0.035081
                               267                  282              -0.027756
                               279                  282              -0.022771
                               280                  284               0.017289
                               280                  287              -0.011154
                               279                  288              -0.010276
            22   2.80860 eV
                               275                  282              -0.507505
                               276                  282              -0.501031
                               273                  281              -0.346043
                               274                  284               0.311876
                               271                  281               0.297464
                               272                  283               0.194043
                               277                  281              -0.193001
                               278                  283               0.172396
                               270                  284              -0.145317
                               267                  284              -0.130186
                               268                  283               0.113396
                               280                  282              -0.076259
                               269                  282              -0.076027
                               279                  284               0.074773
                               266                  281              -0.069465
                               265                  283               0.061492
                               279                  287              -0.031766
                               280                  288              -0.029681
                               278                  285              -0.022657
                               277                  286              -0.016642
                               271                  286               0.015956
                               258                  281               0.011165
            23   2.82125 eV
                               275                  283              -0.687718
                               273                  284              -0.518066
                               274                  281               0.298470
                               276                  283               0.267102
                               272                  282               0.166830
                               269                  283               0.143304
                               267                  281               0.108940
                               266                  284               0.104941
                               277                  284               0.092672
                               278                  282              -0.087296
                               265                  282              -0.070830
                               279                  281              -0.039659
                               280                  283               0.037529
                               271                  284               0.032505
                               270                  281              -0.023958
                               280                  285              -0.014358
                               279                  286              -0.014224
            24   2.82216 eV
                               273                  283               0.676830
                               275                  284               0.568116
                               272                  281              -0.319255
                               274                  282              -0.230171
                               276                  284              -0.150663
                               269                  284              -0.109591
                               277                  283              -0.078755
                               278                  281               0.077838
                               271                  283              -0.071601
                               266                  283              -0.071151
                               267                  282              -0.049075
                               279                  282               0.036395
                               280                  284              -0.032960
                               265                  281               0.029081
                               280                  287               0.016507
                               279                  288               0.016057
                               278                  286               0.010137
                               270                  282               0.010118
            25   2.82516 eV
                               273                  282               0.614771
                               275                  281              -0.442688
                               274                  283               0.385729
                               267                  283               0.267696
                               276                  281               0.263884
                               272                  284              -0.263377
                               265                  284              -0.164267
                               266                  282               0.141400
                               269                  281               0.079437
                               270                  283              -0.077211
                               271                  282               0.052124
                               278                  284              -0.026283
                               277                  282               0.024733
                               268                  284               0.021408
                               275                  286               0.019650
                               273                  288              -0.014219
                               279                  283              -0.012574
                               274                  285              -0.012142
                               280                  281               0.011919
                               270                  285               0.011763
                               272                  287               0.011471
                               268                  287              -0.011006
            26   2.82664 eV
                               273                  281               0.573939
                               275                  282              -0.510185
                               274                  284               0.297573
                               272                  283              -0.281497
                               267                  284               0.270797
                               276                  282               0.248282
                               271                  281               0.233876
                               265                  283              -0.170727
                               266                  281               0.121180
                               270                  284              -0.072206
                               269                  282               0.022448
                               275                  288               0.019293
                               273                  286              -0.018833
                               272                  285               0.015490
                               271                  286               0.013490
                               268                  285              -0.012770
                               274                  287              -0.012453
                               268                  283               0.012190
                               270                  287               0.010881
            27   2.82901 eV
                               275                  283               0.515447
                               272                  282               0.396351
                               270                  281               0.385696
                               276                  283               0.375540
                               274                  281               0.302089
                               268                  282              -0.188055
                               277                  284               0.185865
                               269                  283               0.173457
                               271                  284              -0.151262
                               267                  281               0.142487
                               278                  282              -0.142302
                               266                  284               0.110304
                               280                  283               0.072894
                               279                  281              -0.069319
                               265                  282              -0.065653
                               273                  284              -0.034398
                               279                  286              -0.032847
                               280                  285              -0.031234
                               278                  288              -0.021095
                               277                  287              -0.016747
                               271                  287               0.016023
                               275                  285               0.013486
                               272                  288               0.010336
            28   2.82987 eV
                               272                  281               0.594971
                               275                  284               0.394537
                               276                  284              -0.378952
                               273                  283              -0.317356
                               274                  282              -0.316534
                               269                  284              -0.202276
                               267                  282              -0.198977
                               266                  283              -0.166786
                               265                  281               0.126931
                               271                  283               0.102435
                               278                  281               0.058257
                               277                  283              -0.056918
                               270                  282               0.040701
                               268                  281               0.025329
                               279                  282               0.022529
                               280                  284              -0.020356
                               263                  281              -0.011726
            29   2.83028 eV
                               272                  282              -0.619845
                               273                  284               0.512124
                               276                  283               0.329962
                               274                  281               0.283757
                               269                  283               0.189889
                               267                  281               0.188128
                               275                  283              -0.168179
                               266                  284               0.154919
                               265                  282              -0.123041
                               271                  284              -0.119223
                               277                  284               0.059629
                               278                  282              -0.055412
                               268                  282              -0.046211
                               279                  281              -0.020047
                               270                  281               0.020027
                               280                  283               0.019016
                               263                  282               0.012676
            30   2.83099 eV
                               275                  284              -0.486845
                               276                  284              -0.437934
                               270                  282              -0.397155
                               272                  281              -0.335364
                               274                  282              -0.283252
                               268                  281               0.195200
                               277                  283              -0.190495
                               267                  282              -0.176800
                               269                  284              -0.175481
                               271                  283               0.153583
                               278                  281               0.150331
                               266                  283              -0.124390
                               280                  284              -0.075245
                               279                  282               0.073015
                               265                  281               0.072488
                               279                  288               0.035051
                               280                  287               0.034423
                               273                  283              -0.027987
                               278                  286               0.023688
                               277                  285               0.018586
                               271                  285              -0.017975
                               275                  287              -0.011619
                               272                  286              -0.010850
                               260                  284               0.010061
            31   2.83681 eV
                               274                  283              -0.623051
                               271                  282               0.497558
                               269                  281              -0.364951
                               272                  284              -0.337713
                               273                  282               0.192139
                               278                  284               0.144739
                               275                  281              -0.129798
                               266                  282              -0.114297
                               277                  282              -0.107890
                               279                  283               0.061408
                               270                  283              -0.059907
                               280                  281              -0.051915
                               268                  284               0.041035
                               280                  286              -0.032820
                               279                  285              -0.032202
                               265                  284               0.023947
                               278                  287              -0.018684
                               277                  288              -0.018121
                               271                  288               0.016881
                               272                  287               0.016301
                               275                  286               0.014450
                               274                  285              -0.014112
            32   2.84045 eV
                               274                  284               0.692913
                               269                  282               0.407389
                               272                  283               0.356077
                               271                  281              -0.292083
                               278                  283              -0.163450
                               266                  281               0.145082
                               277                  281               0.133637
                               270                  284               0.133169
                               273                  281              -0.095659
                               267                  284               0.094989
                               275                  282               0.094563
                               268                  283              -0.088370
                               279                  284              -0.070326
                               280                  282               0.066598
                               265                  283              -0.066581
                               276                  282               0.054287
                               279                  287               0.039995
                               280                  288               0.038748
                               278                  285               0.023221
                               277                  286               0.022841
                               271                  286              -0.018027
                               272                  285              -0.016253
                               275                  288              -0.011888
                               260                  282              -0.010461
                               259                  284               0.010001
            33   2.84611 eV
                               271                  282              -0.740272
                               270                  283              -0.412711
                               272                  284              -0.239233
                               268                  284               0.234247
                               274                  283              -0.224349
                               275                  281              -0.212898
                               269                  281              -0.157361
                               276                  281              -0.155690
                               267                  283              -0.101586
                               277                  282              -0.059209
                               266                  282              -0.054915
                               273                  282               0.047640
                               265                  284               0.045599
                               278                  284               0.038567
                               280                  286               0.017310
                               279                  285               0.015269
                               280                  281              -0.014471
                               279                  283               0.011749
                               265                  287               0.011379
                               275                  286               0.010765
                               277                  288               0.010664
            34   2.84825 eV
                               271                  281               0.799773
                               270                  284               0.383628
                               275                  282               0.250260
                               268                  283              -0.244504
                               272                  283               0.223257
                               276                  282               0.166718
                               273                  281              -0.057867
                               267                  284               0.045380
                               277                  281               0.037047
[...]
                               265                  282              -0.465218
                               267                  281              -0.143436
                               272                  282               0.130201
                               273                  284               0.124662
                               274                  281              -0.102365
                               275                  283              -0.057442
                               268                  282               0.037392
                               270                  281              -0.035555
                               276                  283               0.033121
                               278                  282               0.031345
                               271                  284               0.027579
                               276                  285               0.011081
                               267                  286               0.010880
                               273                  287               0.010639
                               277                  284              -0.010511
 -------------------------------------------------------------------------------

 ENERGY| Total FORCE_EVAL ( QS ) energy [a.u.]:             -825.778744589762937

 -------------------------------------------------------------------------------
 -                                                                             -
 -                                DBCSR STATISTICS                             -
 -                                                                             -
 -------------------------------------------------------------------------------
 COUNTER                                    TOTAL       BLAS       SMM       ACC
 flops     6 x    16 x     6             13234176       0.0%    100.0%      0.0%
 flops     6 x    16 x    17             59535360       0.0%    100.0%      0.0%
 flops    17 x    16 x     6             59535360       0.0%    100.0%      0.0%
 flops     6 x     6 x    22            101547072       0.0%    100.0%      0.0%
 flops    17 x    16 x    17            231347968       0.0%    100.0%      0.0%
 flops     6 x    17 x    22            450236160       0.0%    100.0%      0.0%
 flops    17 x     6 x    22            450236160       0.0%    100.0%      0.0%
 flops    17 x    17 x    22           1765235120       0.0%    100.0%      0.0%
 flops     6 x     6 x    24           3021235200       0.0%    100.0%      0.0%
 flops     6 x    24 x     6          11454179328       0.0%    100.0%      0.0%
 flops     6 x    17 x    24          13395456000       0.0%    100.0%      0.0%
 flops    17 x     6 x    24          13395456000       0.0%    100.0%      0.0%
 flops     6 x     6 x    32          33555852288       0.0%    100.0%      0.0%
 flops     6 x    24 x    17          51527854080       0.0%    100.0%      0.0%
 flops    17 x    24 x     6          51527854080       0.0%    100.0%      0.0%
 flops    17 x    17 x    24          52519392000       0.0%    100.0%      0.0%
 flops     6 x    32 x     6         123924824064       0.0%    100.0%      0.0%
 flops     6 x    17 x    32         148778864640       0.0%    100.0%      0.0%
 flops    17 x     6 x    32         148778864640       0.0%    100.0%      0.0%
 flops    17 x    24 x    17         200231666304       0.0%    100.0%      0.0%
 flops     6 x    32 x    17         557489111040       0.0%    100.0%      0.0%
 flops    17 x    32 x     6         557489111040       0.0%    100.0%      0.0%
 flops    17 x    17 x    32         583315380480       0.0%    100.0%      0.0%
 flops    17 x    32 x    17        2166342372352       0.0%    100.0%      0.0%
 flops inhomo. stacks                           0       0.0%      0.0%      0.0%
 flops total                         4.719878E+12       0.0%    100.0%      0.0%
 flops max/rank                    121.857579E+09       0.0%    100.0%      0.0%
 matmuls inhomo. stacks                         0       0.0%      0.0%      0.0%
 matmuls total                          486989120       0.0%    100.0%      0.0%
 number of processed stacks              18144000       0.0%    100.0%      0.0%
 average stack size                                     0.0      26.8       0.0
 marketing flops                     5.816363E+12
 -------------------------------------------------------------------------------
 # multiplications                           1778
 max memory usage/rank             787.300352E+06
 # max total images/rank                       11
 # max 3D layers                                1
 # MPI messages exchanged                11734800
 MPI messages size (bytes):
  total size                         1.203178E+12
  min size                           0.000000E+00
  max size                         364.976000E+03
  average size                     102.530766E+03
 MPI breakdown and total messages size (bytes):
             size <=      128             5242464                        0
       128 < size <=     8192               51930                329693184
      8192 < size <=    32768             1690860              28471549440
     32768 < size <=   131072              154242              16770917184
    131072 < size <=  4194304             4595304            1157677749312
   4194304 < size <= 16777216                   0                        0
  16777216 < size                               0                        0
 -------------------------------------------------------------------------------

 *** WARNING in dbcsr_mm.F:291 :: Using a non-square number of MPI ranks ***
 *** might lead to poor performance. Used ranks: 88 Suggested: 81 169    ***

 -------------------------------------------------------------------------------
 -                                                                             -
 -                      DBCSR MESSAGE PASSING PERFORMANCE                      -
 -                                                                             -
 -------------------------------------------------------------------------------
 ROUTINE             CALLS      AVE VOLUME [Bytes]
 MP_Bcast               25                     12.
 MP_Allreduce         6690                      8.
 MP_Alltoall         32435                  67442.
 MP_ISend           296216                  50262.
 MP_IRecv           306708                  47378.
 -------------------------------------------------------------------------------

 -------------------------------------------------------------------------------
 -                                                                             -
 -                                DBM STATISTICS                               -
 -                                                                             -
 -------------------------------------------------------------------------------
    M  x    N  x    K                                          COUNT     PERCENT
 -------------------------------------------------------------------------------

 -------------------------------------------------------------------------------
 -                                                                             -
 -                                GRID STATISTICS                              -
 -                                                                             -
 -------------------------------------------------------------------------------
 LP    KERNEL             BACKEND                              COUNT     PERCENT
 2     collocate general  CPU                               62990136      22.33%
 2     integrate general  CPU                               62601308      22.20%
 1     collocate general  CPU                               51052032      18.10%
 1     integrate general  CPU                               50736896      17.99%
 3     collocate general  CPU                               15033600       5.33%
 3     integrate general  CPU                               14940800       5.30%
 0     collocate general  CPU                               11418808       4.05%
 0     integrate general  CPU                               11331180       4.02%
 4     collocate general  CPU                                 965520       0.34%
 4     integrate general  CPU                                 959560       0.34%
 -------------------------------------------------------------------------------

 MEMORY| Estimated peak process memory [MiB]                                 751

 -------------------------------------------------------------------------------
 -                                                                             -
 -                         MESSAGE PASSING PERFORMANCE                         -
 -                                                                             -
 -------------------------------------------------------------------------------

 ROUTINE             CALLS      AVE VOLUME [Bytes]
 MP_Group                4
 MP_Bcast              170                4112320.
 MP_Allreduce        35524                    210.
 MP_Sync                33
 MP_Alltoall          7462                1195374.
 MP_SendRecv         84564                  42144.
 MP_ISendRecv        84042                  42144.
 MP_Wait            104134
 MP_comm_split           6
 MP_ISend            12293                 355708.
 MP_IRecv            16857                 259400.
 -------------------------------------------------------------------------------


 -------------------------------------------------------------------------------
 -                                                                             -
 -                           R E F E R E N C E S                               -
 -                                                                             -
 -------------------------------------------------------------------------------

 CP2K version 2023.2, the CP2K developers group (2023).
 CP2K is freely available from https://www.cp2k.org/ .

 Kuehne,Thomas D.; Iannuzzi,Marcella; Del Ben,Mauro;
 Rybkin,Vladimir V.; Seewald,Patrick; Stein,Frederick; Laino,Teodoro;
 Khaliullin,Rustam Z.; Schuett,Ole; Schiffmann,Florian; Golze,Dorothea;
 Wilhelm,Jan; Chulkov,Sergey; Bani-Hashemian,Mohammad Hossein;
 Weber,Valery; Borstnik,Urban; Taillefumier,Mathieu;
 Jakobovits,Alice Shoshana; Lazzaro,Alfio; Pabst,Hans; Mueller,Tiziano;
 Schade,Robert; Guidon,Manuel; Andermatt,Samuel; Holmberg,Nico;
 Schenter,Gregory K.; Hehn,Anna; Bussy,Augustin; Belleflamme,Fabian;
 Tabacchi,Gloria; Gloess,Andreas; Lass,Michael; Bethune,Iain;
 Mundy,Christopher J.; Plessl,Christian; Watkins,Matt;
 VandeVondele,Joost; Krack,Matthias; Hutter,Juerg.
 The Journal of Chemical Physics, 152 (19), (2020).
 CP2K: An electronic structure and molecular dynamics software package -
 Quickstep: Efficient and accurate electronic structure calculations.
 https://doi.org/10.1063/5.0007045

 Schuett, Ole; Messmer, Peter; Hutter, Juerg; VandeVondele, Joost.
 Electronic Structure Calculations on Graphics Processing Units, John
 Wiley & Sons, Ltd, 173-190 (2016).
 GPU-Accelerated Sparse Matrix-Matrix Multiplication for
 Linear Scaling Density Functional Theory.
 https://doi.org/10.1002/9781118670712.ch8

 Heinecke, A; Henry, G; Hutchinson, M; Pabst, H.
 Proceedings of Intl. Supercomputing Conference, 981-991 (2016).
 LIBXSMM: Accelerating Small Matrix Multiplications
 by Runtime Code Generation.
 https://doi.org/10.1109/SC.2016.83

 Borstnik, U; VandeVondele, J; Weber, V; Hutter, J.
 PARALLEL COMPUTING, 40 (5-6), 47-58 (2014).
 Sparse matrix multiplication: The distributed block-compressed sparse
 row library.
 https://doi.org/10.1016/j.parco.2014.03.012

 Hutter, J; Iannuzzi, M; Schiffmann, F; VandeVondele, J.
 WIREs Comput Mol Sci., 4 (1), 15-25 (2014).
 CP2K: atomistic simulations of condensed matter systems.
 https://doi.org/10.1002/wcms.1159

 Marek, A; Blum, V; Johanni, R; Havu, V; Lang, B; Auckenthaler, T;
 Heinecke, A; Bungartz, H; Lederer, H.
 Journal of Physics: Condensed Matter, 26 (21), (2014).
 The ELPA library: scalable parallel eigenvalue solutions for
 electronic structure
 theory and computational science.
 https://doi.org/10.1088/0953-8984/26/21/213201

 Krack, M.
 THEORETICAL CHEMISTRY ACCOUNTS, 114 (1-3), 145-152 (2005).
 Pseudopotentials for H to Kr optimized for gradient-corrected
 exchange-correlation functionals.
 https://doi.org/10.1007/s00214-005-0655-y

 VandeVondele, J; Krack, M; Mohamed, F; Parrinello, M; Chassaing, T;
 Hutter, J. COMPUTER PHYSICS COMMUNICATIONS, 167 (2), 103-128 (2005).
 QUICKSTEP: Fast and accurate density functional calculations using a
 mixed Gaussian and plane waves approach.
 https://doi.org/10.1016/j.cpc.2004.12.014

 Frigo, M; Johnson, SG.
 PROCEEDINGS OF THE IEEE, 93 (2), 216-231 (2005).
 The design and implementation of FFTW3.
 https://doi.org/10.1109/JPROC.2004.840301

 Iannuzzi, M; Chassaing, T; Wallman, T; Hutter, J.
 CHIMIA, 59 (7-8), 499-503 (2005).
 Ground and excited state density functional calculations with the
 Gaussian and augmented-plane-wave method.
 https://doi.org/10.2533/000942905777676164

 Hartwigsen, C; Goedecker, S; Hutter, J.
 PHYSICAL REVIEW B, 58 (7), 3641-3662 (1998).
 Relativistic separable dual-space Gaussian pseudopotentials from H to Rn.
 https://doi.org/10.1103/PhysRevB.58.3641

 Lippert, G; Hutter, J; Parrinello, M.
 MOLECULAR PHYSICS, 92 (3), 477-487 (1997).
 A hybrid Gaussian and plane wave density functional scheme.
 https://doi.org/10.1080/002689797170220

 Perdew, JP; Burke, K; Ernzerhof, M.
 PHYSICAL REVIEW LETTERS, 77 (18), 3865-3868 (1996).
 Generalized gradient approximation made simple.
 https://doi.org/10.1103/PhysRevLett.77.3865

 Goedecker, S; Teter, M; Hutter, J.
 PHYSICAL REVIEW B, 54 (3), 1703-1710 (1996).
 Separable dual-space Gaussian pseudopotentials.
 https://doi.org/10.1103/PhysRevB.54.1703


 -------------------------------------------------------------------------------
 -                                                                             -
 -                                T I M I N G                                  -
 -                                                                             -
 -------------------------------------------------------------------------------
 SUBROUTINE                       CALLS  ASD         SELF TIME        TOTAL TIME
                                MAXIMUM       AVERAGE  MAXIMUM  AVERAGE  MAXIMUM
 CP2K                                 1  1.0    0.115    0.123  235.657  235.659
 qs_energies                          1  2.0    0.015    0.018  235.205  235.208
 qs_energies_properties               1  3.0    0.000    0.000  207.196  207.205
 tddfpt                               1  4.0    0.000    0.003  207.196  207.205
 tddfpt_energies                      1  5.0    0.005    0.006  205.799  205.802
 tddfpt_davidson_solver               2  6.0    0.004    0.005  203.324  203.326
 tddfpt_compute_Aop_evects            6  7.0    0.000    0.000  179.849  179.853
 fhxc_kernel                          6  8.0    0.011    0.013  174.062  174.066
 integrate_v_rspace                 322  9.0    0.007    0.022   83.941   84.053
 qs_rho_update_rho_low              324  8.7    0.007    0.008   79.635   80.056
 calculate_rho_elec                 324  9.7    0.050    0.068   79.627   80.048
 grid_integrate_task_list           322 10.0   68.715   71.205   68.715   71.205
 grid_collocate_task_list           324 10.7   65.092   67.682   65.092   67.682
 dbcsr_multiply_generic            1778 10.3    0.078    0.108   25.943   27.397
 scf_env_do_scf                       1  3.0    0.004    0.016   27.226   27.240
 scf_env_do_scf_inner_loop           22  4.0    0.010    0.018   27.222   27.236
 cp_dbcsr_sm_fm_multiply           1156  8.5    0.018    0.020   26.316   26.453
 cp_dbcsr_sm_fm_multiply_core      1156  9.5    0.002    0.002   21.232   22.748
 mp_waitall_1                    300637 14.0   19.294   22.467   19.294   22.467
 rs_pw_transfer                    2585 11.4    0.013    0.016   18.584   21.749
 multiply_cannon                   1778 11.3    0.183    0.329   19.036   20.851
 multiply_cannon_loop              1778 12.3    0.421    0.643   17.642   19.427
 multiply_cannon_metrocomm3       78232 13.3    0.070    0.087   14.118   17.052
 density_rs2pw                      324 10.7    0.008    0.012   13.528   16.687
 pw_transfer                       6154 11.5    0.167    0.175   16.342   16.394
 fft_wrap_pw1pw2                   5510 12.5    0.012    0.014   16.152   16.209
 fft3d_ps                          5510 14.5    3.749    4.821   13.776   14.262
 fft_wrap_pw1pw2_180               3572 13.6    1.076    1.409   13.461   13.724
 qs_scf_new_mos                      22  5.0    0.000    0.000   13.678   13.711
 eigensolver                         23  6.0    0.002    0.003   13.634   13.640
 tddfpt_compute_residual_vects        4  7.0    0.007    0.008   11.920   12.018
 potential_pw2rs                    322 10.0    0.010    0.012   11.499   11.560
 cp_fm_diag_elpa                     29  7.2    0.000    0.000   11.082   11.124
 cp_fm_diag_elpa_base                29  8.2   10.936   10.982   11.004   11.035
 parallel_gemm_fm                  1008  7.9    0.001    0.001   10.392   10.490
 parallel_gemm_fm_cosma            1008  8.9   10.391   10.489   10.391   10.489
 mp_waitany                       12293 13.3    7.167   10.430    7.167   10.430
 mp_alltoall_z22v                  5510 16.5    8.217    9.433    8.217    9.433
 tddfpt_apply_xc_analytic           300  9.0    0.036    0.046    8.976    9.060
 xc_pw_derive                      1935 11.0    0.004    0.005    8.319    8.422
 rs_pw_transfer_RS2PW_180           325 12.7    0.396    0.593    4.916    8.166
 tddfpt_orthonormalize_psi1_psi       7  6.9    0.018    0.020    7.609    7.610
 qs_ks_update_qs_env                 22  5.0    0.000    0.000    7.190    7.204
 rebuild_ks_matrix                   22  6.0    0.000    0.000    7.142    7.156
 qs_ks_build_kohn_sham_matrix        22  7.0    0.013    0.014    7.141    7.156
 mp_alltoall_d11v                 14035 11.8    4.460    7.084    4.460    7.084
 rs_gather_matrices                 322 10.0    0.060    0.092    3.720    6.602
 mp_alltoall_i22                   4463 11.5    4.535    6.432    4.535    6.432
 copy_dbcsr_to_fm                  1181  9.4    0.010    0.013    4.015    5.821
 tddfpt_apply_energy_diff             6  8.0    0.002    0.002    5.787    5.787
 sum_up_and_integrate                22  8.0    0.003    0.005    5.766    5.781
 multiply_cannon_multrec          78232 13.3    2.411    5.771    2.421    5.781
 xc_pw_divergence                   322 10.9    0.002    0.003    5.635    5.710
 cp_dbcsr_plus_fm_fm_t_native       322  8.9    0.003    0.004    5.303    5.696
 xc_calc_2nd_deriv_analytical       300 10.0    0.178    0.222    5.382    5.425
 make_m2s                          3556 11.3    0.050    0.062    4.897    5.278
 make_images                       3556 12.3    0.247    0.381    4.649    4.918
 x_to_yz                           2280 15.1    0.373    0.484    4.482    4.839
 yz_to_x                           1938 16.2    0.187    0.264    4.112    4.736
 -------------------------------------------------------------------------------

 The number of warnings for this run is : 30

 -------------------------------------------------------------------------------
  **** **** ******  **  PROGRAM ENDED AT                 2023-12-20 14:04:24.659
 ***** ** ***  *** **   PROGRAM RAN ON                              3610df9f1bde
 **    ****   ******    PROGRAM RAN BY                                 <unknown>
 ***** **    ** ** **   PROGRAM PROCESS ID                                   538
  **** **  *******  **  PROGRAM STOPPED IN                                  /mnt
