
     Program PWSCF v.7.2 starts on 24Jan2024 at 11:48:42 

     This program is part of the open-source Quantum ESPRESSO suite
     for quantum simulation of materials; please cite
         "P. Giannozzi et al., J. Phys.:Condens. Matter 21 395502 (2009);
         "P. Giannozzi et al., J. Phys.:Condens. Matter 29 465901 (2017);
         "P. Giannozzi et al., J. Chem. Phys. 152 154105 (2020);
          URL http://www.quantum-espresso.org", 
     in publications or presentations arising from this work. More details at
     http://www.quantum-espresso.org/quote

     Parallel version (MPI & OpenMP), running on     180 processor cores
     Number of MPI processes:                90
     Threads/MPI process:                     2

     MPI processes distributed on     1 nodes
     352652 MiB available memory on the printing compute node when the environment starts

     Reading input from 4amp15pbe_relax.in

     Current dimensions of program PWSCF are:
     Max number of different atomic species (ntypx) = 10
     Max number of k-points (npk) =  40000
     Max angular momentum in pseudopotentials (lmaxx) =  4

     IMPORTANT: XC functional enforced from input :
     Exchange-correlation= PBE
                           (   1   4   3   4   0   0   0)
     Any further DFT definition will be discarded
     Please, verify this is what you really want


     gamma-point specific algorithms are used
     Message from routine setup:
     using ibrav=0 with symmetry is DISCOURAGED, use correct ibrav instead

     R & G space division:  proc/nbgrp/npool/nimage =      90
     Subspace diagonalization in iterative solution of the eigenvalue problem:
     one sub-group per band group will be used
     ELPA distributed-memory algorithm (size of sub-group:  3*  3 procs)


     Parallelization info
     --------------------
     sticks:   dense  smooth     PW     G-vecs:    dense   smooth      PW
     Min         230      92     22                51398    12998    1610
     Max         232      94     24                51436    13032    1642
     Sum       20847    8351   2089              4628145  1171025  146283

     Using Slab Decomposition



     bravais-lattice index     =            0
     lattice parameter (alat)  =      30.7969  a.u.
     unit-cell volume          =   12112.4072 (a.u.)^3
     number of atoms/cell      =          196
     number of atomic types    =            4
     number of electrons       =       560.00
     number of Kohn-Sham states=          280
     kinetic-energy cutoff     =      80.0000  Ry
     charge density cutoff     =     800.0000  Ry
     scf convergence threshold =      1.0E-10
     mixing beta               =       0.7000
     number of iterations used =            8  local-TF  mixing
     energy convergence thresh.=      1.0E-04
     force convergence thresh. =      1.0E-03
     Exchange-correlation= PBE
                           (   1   4   3   4   0   0   0)
     nstep                     =           50


     celldm(1)=  30.796867  celldm(2)=   0.000000  celldm(3)=   0.000000
     celldm(4)=   0.000000  celldm(5)=   0.000000  celldm(6)=   0.000000

     crystal axes: (cart. coord. in units of alat)
               a(1) = (   1.000000   0.000000   0.000000 )  
               a(2) = (   0.000000   0.345487   0.000000 )  
               a(3) = (  -0.937552   0.000000   1.200271 )  

     reciprocal axes: (cart. coord. in units 2 pi/alat)
               b(1) = (  1.000000 -0.000000  0.781117 )  
               b(2) = (  0.000000  2.894466 -0.000000 )  
               b(3) = (  0.000000  0.000000  0.833145 )  


     PseudoPot. # 1 for O  read from file:
     /home/joyeechan1127/miniconda3/pp/O.pbe-n-rrkjus_psl.1.0.0.UPF
     MD5 check sum: 91400c9766925bcf19f520983a725ff0
     Pseudo is Ultrasoft + core correction, Zval =  6.0
     Generated using &quot;atomic&quot; code by A. Dal Corso  v.6.3MaX
     Using radial grid of 1095 points,  4 beta functions with: 
                l(1) =   0
                l(2) =   0
                l(3) =   1
                l(4) =   1
     Q(r) pseudized with 0 coefficients 


     PseudoPot. # 2 for N  read from file:
     /home/joyeechan1127/miniconda3/pp/N.pbe-n-rrkjus_psl.1.0.0.UPF
     MD5 check sum: ada94e3ed05223de5319d0572dc76806
     Pseudo is Ultrasoft + core correction, Zval =  5.0
     Generated using &quot;atomic&quot; code by A. Dal Corso  v.6.3MaX
     Using radial grid of 1085 points,  4 beta functions with: 
                l(1) =   0
                l(2) =   0
                l(3) =   1
                l(4) =   1
     Q(r) pseudized with 0 coefficients 


     PseudoPot. # 3 for C  read from file:
     /home/joyeechan1127/miniconda3/pp/C.pbe-n-rrkjus_psl.1.0.0.UPF
     MD5 check sum: 1fdd950c42eb37d8afe3dd2f8d12311e
     Pseudo is Ultrasoft + core correction, Zval =  4.0
     Generated using &quot;atomic&quot; code by A. Dal Corso  v.6.3MaX
     Using radial grid of 1073 points,  4 beta functions with: 
                l(1) =   0
                l(2) =   0
                l(3) =   1
                l(4) =   1
     Q(r) pseudized with 0 coefficients 


     PseudoPot. # 4 for H  read from file:
     /home/joyeechan1127/miniconda3/pp/H.pbe-rrkjus_psl.1.0.0.UPF
     MD5 check sum: 3f4114867bd07edc7f1424d066fc1888
     Pseudo is Ultrasoft, Zval =  1.0
     Generated using &quot;atomic&quot; code by A. Dal Corso  v.6.3MaX
     Using radial grid of  929 points,  2 beta functions with: 
                l(1) =   0
                l(2) =   0
     Q(r) pseudized with 0 coefficients 


     atomic species   valence    mass     pseudopotential
        O              6.00    16.00000     O ( 1.00)
        N              5.00    14.00000     N ( 1.00)
        C              4.00    12.00000     C ( 1.00)
        H              1.00     1.00000     H ( 1.00)

      4 Sym. Ops., with inversion, found ( 2 have fractional translation)



   Cartesian axes

     site n.     atom                  positions (alat units)
         1           O   tau(   1) = (  -0.2800852   0.2365203   0.5805470  )
         2           O   tau(   2) = (   0.0031429   0.2647121   0.6679628  )
         3           O   tau(   3) = (   0.2341418   0.3276943   0.7379026  )
         4           N   tau(   4) = (  -0.4499559   0.1674920   0.7842690  )
         5           C   tau(   5) = (  -0.1110941   0.0945252   0.8006407  )
         6           H   tau(   6) = (  -0.1381922   0.1348750   0.8305647  )
         7           C   tau(   7) = (  -0.0585801   0.0439114   0.8383892  )
         8           H   tau(   8) = (  -0.0493887   0.0499135   0.8943855  )
         9           C   tau(   9) = (  -0.0184814   0.3293872   0.7966558  )
        10           H   tau(  10) = (   0.0179337   0.2946250   0.8235863  )
        11           C   tau(  11) = (  -0.0322373   0.3211992   0.7158176  )
        12           C   tau(  12) = (  -0.0854918   0.0268443   0.6770968  )
        13           H   tau(  13) = (  -0.0949550   0.0203381   0.6212002  )
        14           C   tau(  14) = (  -0.1251080   0.0870972   0.7184942  )
        15           C   tau(  15) = (  -0.1793886   0.1400949   0.6742762  )
        16           H   tau(  16) = (  -0.1880635   0.1273126   0.6193470  )
        17           C   tau(  17) = (  -0.2175367   0.2036300   0.7019904  )
        18           H   tau(  18) = (  -0.2098992   0.2186514   0.7565092  )
        19           C   tau(  19) = (  -0.2715626   0.2521363   0.6517111  )
        20           C   tau(  20) = (  -0.3164554   0.3199900   0.6879833  )
        21           C   tau(  21) = (  -0.3672215   0.0196582   0.6392403  )
        22           H   tau(  22) = (  -0.3715580   0.0065947   0.5838562  )
        23           C   tau(  23) = (  -0.4114353   0.0828823   0.6693431  )
        24           H   tau(  24) = (  -0.4450277   0.1131701   0.6345844  )
        25           C   tau(  25) = (  -0.4069638   0.1024023   0.7500973  )
        26           C   tau(  26) = (  -0.3551784   0.0592510   0.7984442  )
        27           H   tau(  27) = (  -0.3494910   0.0735970   0.8533818  )
        28           C   tau(  28) = (  -0.3115364   0.3413065   0.7683054  )
        29           H   tau(  29) = (  -0.2775065   0.3116243   0.8031697  )
        30           C   tau(  30) = (  -0.5216017   0.1806551   0.7603236  )
        31           H   tau(  31) = (  -0.5445156   0.1447518   0.7223650  )
        32           C   tau(  32) = (  -0.5701342   0.2484742   0.7885300  )
        33           C   tau(  33) = (   0.3547986   0.2585969   0.7545623  )
        34           H   tau(  34) = (   0.3357555   0.2208884   0.7161788  )
        35           C   tau(  35) = (   0.3070882   0.3233066   0.7760832  )
        36           C   tau(  36) = (   0.3336764   0.0316466   0.8329400  )
        37           H   tau(  37) = (   0.3009269   0.0757404   0.8484991  )
        38           C   tau(  38) = (  -0.5912813   0.0206947   0.8671957  )
        39           H   tau(  39) = (  -0.5729004   0.0575554   0.9066930  )
        40           C   tau(  40) = (  -0.5428585   0.3029920   0.8451468  )
        41           H   tau(  41) = (  -0.4911264   0.2967891   0.8685196  )
        42           C   tau(  42) = (   0.0583258   0.2095724   0.7035748  )
        43           H   tau(  43) = (   0.0793245   0.1732734   0.6621691  )
        44           H   tau(  44) = (   0.0307581   0.1781496   0.7450586  )
        45           H   tau(  45) = (   0.1029453   0.2393782   0.7279379  )
        46           C   tau(  46) = (   0.1897708   0.0548288   0.7465325  )
        47           H   tau(  47) = (   0.1420491   0.0529010   0.7120379  )
        48           H   tau(  48) = (   0.2235316   0.1004576   0.7308078  )
        49           H   tau(  49) = (   0.1731438   0.0611301   0.8026956  )
        50           O   tau(  50) = (   0.8113092   0.0637769   0.0195884  )
        51           O   tau(  51) = (  -0.4094709   0.0919686   1.1324436  )
        52           O   tau(  52) = (  -0.6404698   0.1549509   1.0625038  )
        53           N   tau(  53) = (   0.0436278   0.3402355   1.0161374  )
        54           C   tau(  54) = (  -0.2952339   0.2672687   0.9997657  )
        55           H   tau(  55) = (  -0.2681358   0.3076184   0.9698417  )
        56           C   tau(  56) = (  -0.3477479   0.2166548   0.9620171  )
        57           H   tau(  57) = (  -0.3569393   0.2226570   0.9060209  )
        58           C   tau(  58) = (  -0.3878466   0.1566438   1.0037506  )
        59           H   tau(  59) = (  -0.4242618   0.1218816   0.9768201  )
        60           C   tau(  60) = (  -0.3740908   0.1484557   1.0845888  )
        61           C   tau(  61) = (  -0.3208362   0.1995878   1.1233095  )
        62           H   tau(  62) = (  -0.3113730   0.1930816   1.1792062  )
        63           C   tau(  63) = (  -0.2812200   0.2598407   1.0819122  )
        64           C   tau(  64) = (  -0.2269394   0.3128384   1.1261302  )
        65           H   tau(  65) = (  -0.2182646   0.3000561   1.1810594  )
        66           C   tau(  66) = (  -0.1887913   0.0308865   1.0984159  )
        67           H   tau(  67) = (  -0.1964289   0.0459080   1.0438972  )
        68           C   tau(  68) = (  -0.1347654   0.0793929   1.1486953  )
        69           C   tau(  69) = (  -0.0898726   0.1472465   1.1124231  )
        70           C   tau(  70) = (  -0.0391066   0.1924017   1.1611661  )
        71           H   tau(  71) = (   0.9027820   0.1793381   0.0162793  )
        72           C   tau(  72) = (   0.0051072   0.2556258   1.1310633  )
        73           H   tau(  73) = (   0.0386997   0.2859136   1.1658219  )
        74           C   tau(  74) = (   0.0006357   0.2751458   1.0503091  )
        75           C   tau(  75) = (  -0.0511497   0.2319945   1.0019622  )
        76           H   tau(  76) = (  -0.0568370   0.2463405   0.9470246  )
        77           C   tau(  77) = (  -0.0947916   0.1685631   1.0321010  )
        78           H   tau(  78) = (  -0.1288215   0.1388809   0.9972367  )
        79           C   tau(  79) = (   0.1152737   0.0079116   1.0400828  )
        80           H   tau(  80) = (   0.1381876   0.3174952   1.0780413  )
        81           C   tau(  81) = (   0.1638062   0.0757307   1.0118764  )
        82           C   tau(  82) = (  -0.7611266   0.0858535   1.0458441  )
        83           H   tau(  83) = (  -0.7420835   0.0481450   1.0842275  )
        84           C   tau(  84) = (  -0.7134163   0.1505632   1.0243232  )
        85           C   tau(  85) = (  -0.7400044   0.2043900   0.9674664  )
        86           H   tau(  86) = (  -0.7072549   0.2484839   0.9519073  )
        87           C   tau(  87) = (   0.1849533   0.1934381   0.9332106  )
        88           H   tau(  88) = (   0.1665723   0.2302988   0.8937133  )
        89           C   tau(  89) = (   0.1365305   0.1302486   0.9552596  )
        90           H   tau(  90) = (   0.0847984   0.1240457   0.9318867  )
        91           C   tau(  91) = (  -0.4646538   0.0368289   1.0968316  )
        92           H   tau(  92) = (  -0.4856525   0.0005300   1.1382373  )
        93           H   tau(  93) = (  -0.4370861   0.0054062   1.0553478  )
        94           H   tau(  94) = (  -0.5092733   0.0666347   1.0724685  )
        95           C   tau(  95) = (  -0.5960988   0.2275722   1.0538739  )
        96           H   tau(  96) = (  -0.5483771   0.2256444   1.0883685  )
        97           H   tau(  97) = (  -0.6298597   0.2732010   1.0695986  )
        98           H   tau(  98) = (  -0.5794719   0.2338736   0.9977108  )
        99           O   tau(  99) = (   0.3425331   0.1089666   0.6197239  )
       100           O   tau( 100) = (   0.0593051   0.0807748   0.5323081  )
       101           O   tau( 101) = (  -0.1716938   0.0177926   0.4623684  )
       102           N   tau( 102) = (   0.5124038   0.1779949   0.4160019  )
       103           C   tau( 103) = (   0.1735421   0.2509617   0.3996302  )
       104           H   tau( 104) = (   0.2006402   0.2106119   0.3697062  )
       105           C   tau( 105) = (   0.1210281   0.3015755   0.3618817  )
       106           H   tau( 106) = (   0.1118367   0.2955734   0.3058854  )
       107           C   tau( 107) = (   0.0809294   0.0160997   0.4036151  )
       108           H   tau( 108) = (   0.0445142   0.0508619   0.3766846  )
       109           C   tau( 109) = (   0.0946853   0.0242877   0.4844533  )
       110           C   tau( 110) = (   0.1479398   0.3186426   0.5231741  )
       111           H   tau( 111) = (   0.1574030   0.3251488   0.5790707  )
       112           C   tau( 112) = (   0.1875560   0.2583897   0.4817767  )
       113           C   tau( 113) = (   0.2418366   0.2053920   0.5259947  )
       114           H   tau( 114) = (   0.2505115   0.2181743   0.5809239  )
       115           C   tau( 115) = (   0.2799847   0.1418569   0.4982805  )
       116           H   tau( 116) = (   0.2723471   0.1268355   0.4437618  )
       117           C   tau( 117) = (   0.3340106   0.0933506   0.5485598  )
       118           C   tau( 118) = (   0.3789034   0.0254969   0.5122876  )
       119           C   tau( 119) = (   0.4296694   0.3258287   0.5610306  )
       120           H   tau( 120) = (   0.4340060   0.3388922   0.6164147  )
       121           C   tau( 121) = (   0.4738832   0.2626046   0.5309278  )
       122           H   tau( 122) = (   0.5074757   0.2323168   0.5656865  )
       123           C   tau( 123) = (   0.4694117   0.2430846   0.4501736  )
       124           C   tau( 124) = (   0.4176263   0.2862359   0.4018267  )
       125           H   tau( 125) = (   0.4119390   0.2718899   0.3468891  )
       126           C   tau( 126) = (   0.3739844   0.0041804   0.4319655  )
       127           H   tau( 127) = (   0.3399545   0.0338626   0.3971012  )
       128           C   tau( 128) = (   0.5840497   0.1648318   0.4399473  )
       129           H   tau( 129) = (   0.6069636   0.2007351   0.4779059  )
       130           C   tau( 130) = (   0.6325822   0.0970127   0.4117409  )
       131           C   tau( 131) = (  -0.2923506   0.0868900   0.4457086  )
       132           H   tau( 132) = (  -0.2733075   0.1245985   0.4840921  )
       133           C   tau( 133) = (  -0.2446403   0.0221803   0.4241877  )
       134           C   tau( 134) = (  -0.2712284   0.3138403   0.3673309  )
       135           H   tau( 135) = (  -0.2384789   0.2697465   0.3517718  )
       136           C   tau( 136) = (   0.6537293   0.3247922   0.3330752  )
       137           H   tau( 137) = (   0.6353483   0.2879315   0.2935779  )
       138           C   tau( 138) = (   0.6053065   0.0424949   0.3551242  )
       139           H   tau( 139) = (   0.5535744   0.0486978   0.3317513  )
       140           C   tau( 140) = (   0.0041222   0.1359145   0.4966961  )
       141           H   tau( 141) = (  -0.0168765   0.1722135   0.5381019  )
       142           H   tau( 142) = (   0.0316899   0.1673373   0.4552123  )
       143           H   tau( 143) = (  -0.0404973   0.1061087   0.4723330  )
       144           C   tau( 144) = (  -0.1273228   0.2906581   0.4537384  )
       145           H   tau( 145) = (  -0.0796011   0.2925859   0.4882330  )
       146           H   tau( 146) = (  -0.1610837   0.2450293   0.4694632  )
       147           H   tau( 147) = (  -0.1106959   0.2843568   0.3975753  )
       148           O   tau( 148) = (  -0.7488612   0.2817100   1.1806825  )
       149           O   tau( 149) = (   0.4719189   0.2535183   0.0678273  )
       150           O   tau( 150) = (   0.7029178   0.1905360   0.1377671  )
       151           N   tau( 151) = (   0.0188201   0.0052514   0.1841336  )
       152           C   tau( 152) = (   0.3576819   0.0782182   0.2005053  )
       153           H   tau( 153) = (   0.3305838   0.0378685   0.2304292  )
       154           C   tau( 154) = (   0.4101959   0.1288321   0.2382538  )
       155           H   tau( 155) = (   0.4193873   0.1228299   0.2942500  )
       156           C   tau( 156) = (   0.4502946   0.1888431   0.1965204  )
       157           H   tau( 157) = (   0.4867098   0.2236053   0.2234508  )
       158           C   tau( 158) = (   0.4365387   0.1970312   0.1156821  )
       159           C   tau( 159) = (   0.3832842   0.1458991   0.0769614  )
       160           H   tau( 160) = (   0.3738210   0.1524053   0.0210648  )
       161           C   tau( 161) = (   0.3436680   0.0856462   0.1183587  )
       162           C   tau( 162) = (   0.2893874   0.0326485   0.0741407  )
       163           H   tau( 163) = (   0.2807125   0.0454308   0.0192115  )
       164           C   tau( 164) = (   0.2512393   0.3146004   0.1018550  )
       165           H   tau( 165) = (   0.2588768   0.2995789   0.1563737  )
       166           C   tau( 166) = (   0.1972134   0.2660940   0.0515756  )
       167           C   tau( 167) = (   0.1523206   0.1982404   0.0878478  )
       168           C   tau( 168) = (   0.1015546   0.1530852   0.0391048  )
       169           H   tau( 169) = (  -0.8403340   0.1661488   1.1839916  )
       170           C   tau( 170) = (   0.0573408   0.0898611   0.0692076  )
       171           H   tau( 171) = (   0.0237483   0.0595733   0.0344490  )
       172           C   tau( 172) = (   0.0618123   0.0703411   0.1499618  )
       173           C   tau( 173) = (   0.1135977   0.1134924   0.1983088  )
       174           H   tau( 174) = (   0.1192850   0.0991464   0.2532464  )
       175           C   tau( 175) = (   0.1572396   0.1769238   0.1681700  )
       176           H   tau( 176) = (   0.1912695   0.2066060   0.2030342  )
       177           C   tau( 177) = (  -0.0528257   0.3375752   0.1601882  )
       178           H   tau( 178) = (  -0.0757396   0.0279917   0.1222296  )
       179           C   tau( 179) = (  -0.1013582   0.2697562   0.1883945  )
       180           C   tau( 180) = (   0.8235746   0.2596334   0.1544269  )
       181           H   tau( 181) = (   0.8045315   0.2973419   0.1160434  )
       182           C   tau( 182) = (   0.7758643   0.1949237   0.1759477  )
       183           C   tau( 183) = (   0.8024524   0.1410968   0.2328045  )
       184           H   tau( 184) = (   0.7697029   0.0970030   0.2483637  )
       185           C   tau( 185) = (  -0.1225053   0.1520488   0.2670603  )
       186           H   tau( 186) = (  -0.1041243   0.1151881   0.3065576  )
       187           C   tau( 187) = (  -0.0740825   0.2152383   0.2450113  )
       188           H   tau( 188) = (  -0.0223504   0.2214412   0.2683842  )
       189           C   tau( 189) = (   0.5271018   0.3086580   0.1034393  )
       190           H   tau( 190) = (   0.5481005   0.3449569   0.0620336  )
       191           H   tau( 191) = (   0.4995341   0.3400807   0.1449231  )
       192           H   tau( 192) = (   0.5717213   0.2788522   0.1278024  )
       193           C   tau( 193) = (   0.6585468   0.1179147   0.1463970  )
       194           H   tau( 194) = (   0.6108251   0.1198425   0.1119025  )
       195           H   tau( 195) = (   0.6923076   0.0722859   0.1306723  )
       196           H   tau( 196) = (   0.6419198   0.1116133   0.2025601  )

     number of k points=     1
                       cart. coord. in units 2pi/alat
        k(    1) = (   0.0000000   0.0000000   0.0000000), wk =   2.0000000

     Dense  grid:  2314073 G-vectors     FFT dimensions: ( 288,  96, 432)

     Smooth grid:   585513 G-vectors     FFT dimensions: ( 180,  64, 270)

     Estimated max dynamical RAM per process >     171.04 MB

     Estimated total dynamical RAM >      15.03 GB

     Initial potential from superposition of free atoms

     starting charge     559.9952, renormalised to     560.0000
     Starting wfcs are  532 randomized atomic wfcs

     total cpu time spent up to now is        7.4 secs

     per-process dynamical memory:    76.7 Mb

     Self-consistent Calculation

     iteration #  1     ecut=    80.00 Ry     beta= 0.70
     Davidson diagonalization with overlap
     ethr =  1.00E-02,  avg # of iterations =  3.0

     total cpu time spent up to now is       12.2 secs

     total energy              =   -1758.67536159 Ry
     estimated scf accuracy    <      26.86773442 Ry

     iteration #  2     ecut=    80.00 Ry     beta= 0.70
     Davidson diagonalization with overlap
     ethr =  4.80E-03,  avg # of iterations =  2.0

     total cpu time spent up to now is       15.9 secs

     total energy              =   -1756.18752368 Ry
     estimated scf accuracy    <       7.39089668 Ry

     iteration #  3     ecut=    80.00 Ry     beta= 0.70
     Davidson diagonalization with overlap
     ethr =  1.32E-03,  avg # of iterations =  4.0

     total cpu time spent up to now is       20.5 secs

     total energy              =   -1757.77881765 Ry
     estimated scf accuracy    <       0.79129618 Ry

     iteration #  4     ecut=    80.00 Ry     beta= 0.70
     Davidson diagonalization with overlap
     ethr =  1.41E-04,  avg # of iterations =  5.0

     total cpu time spent up to now is       25.4 secs

     total energy              =   -1757.82898870 Ry
     estimated scf accuracy    <       0.22156929 Ry

     iteration #  5     ecut=    80.00 Ry     beta= 0.70
     Davidson diagonalization with overlap
     ethr =  3.96E-05,  avg # of iterations =  7.0

     total cpu time spent up to now is       32.2 secs

     total energy              =   -1757.89268427 Ry
     estimated scf accuracy    <       0.21536795 Ry

     iteration #  6     ecut=    80.00 Ry     beta= 0.70
     Davidson diagonalization with overlap
     ethr =  3.85E-05,  avg # of iterations =  8.0

     total cpu time spent up to now is       37.0 secs

     total energy              =   -1757.88640514 Ry
     estimated scf accuracy    <       0.04733783 Ry

     iteration #  7     ecut=    80.00 Ry     beta= 0.70
     Davidson diagonalization with overlap
     ethr =  8.45E-06,  avg # of iterations = 10.0

     total cpu time spent up to now is       44.6 secs

     total energy              =   -1757.91237615 Ry
     estimated scf accuracy    <       0.07457704 Ry

     iteration #  8     ecut=    80.00 Ry     beta= 0.70
     Davidson diagonalization with overlap
     ethr =  8.45E-06,  avg # of iterations =  2.0

     total cpu time spent up to now is       48.7 secs

     total energy              =   -1757.90091297 Ry
     estimated scf accuracy    <       0.03791929 Ry

     iteration #  9     ecut=    80.00 Ry     beta= 0.70
     Davidson diagonalization with overlap
     ethr =  6.77E-06,  avg # of iterations =  5.0

     total cpu time spent up to now is       54.1 secs

     total energy              =   -1757.91236294 Ry
     estimated scf accuracy    <       0.00583860 Ry

     iteration # 10     ecut=    80.00 Ry     beta= 0.70
     Davidson diagonalization with overlap
     ethr =  1.04E-06,  avg # of iterations =  2.0

     total cpu time spent up to now is       57.9 secs

     total energy              =   -1757.91092456 Ry
     estimated scf accuracy    <       0.00468868 Ry

     iteration # 11     ecut=    80.00 Ry     beta= 0.70
     Davidson diagonalization with overlap
     ethr =  8.37E-07,  avg # of iterations =  7.0

     total cpu time spent up to now is       63.4 secs

     total energy              =   -1757.91148603 Ry
     estimated scf accuracy    <       0.00093145 Ry

     iteration # 12     ecut=    80.00 Ry     beta= 0.70
     Davidson diagonalization with overlap
     ethr =  1.66E-07,  avg # of iterations =  3.0

     total cpu time spent up to now is       68.0 secs

     total energy              =   -1757.91133656 Ry
     estimated scf accuracy    <       0.00050149 Ry

     iteration # 13     ecut=    80.00 Ry     beta= 0.70
     Davidson diagonalization with overlap
     ethr =  8.96E-08,  avg # of iterations =  7.0

     total cpu time spent up to now is       74.6 secs

     total energy              =   -1757.91141514 Ry
     estimated scf accuracy    <       0.00071680 Ry

     iteration # 14     ecut=    80.00 Ry     beta= 0.70
     Davidson diagonalization with overlap
     ethr =  8.96E-08,  avg # of iterations =  6.0

     total cpu time spent up to now is       80.2 secs

     total energy              =   -1757.91143018 Ry
     estimated scf accuracy    <       0.00022340 Ry

     iteration # 15     ecut=    80.00 Ry     beta= 0.70
     Davidson diagonalization with overlap
     ethr =  3.99E-08,  avg # of iterations =  5.0

     total cpu time spent up to now is       85.9 secs

     total energy              =   -1757.91145293 Ry
     estimated scf accuracy    <       0.00016698 Ry

     iteration # 16     ecut=    80.00 Ry     beta= 0.70
     Davidson diagonalization with overlap
     ethr =  2.98E-08,  avg # of iterations =  2.0

     total cpu time spent up to now is       89.7 secs

     total energy              =   -1757.91142630 Ry
     estimated scf accuracy    <       0.00008693 Ry

     iteration # 17     ecut=    80.00 Ry     beta= 0.70
     Davidson diagonalization with overlap
     ethr =  1.55E-08,  avg # of iterations =  5.0

     total cpu time spent up to now is       95.1 secs

     total energy              =   -1757.91145367 Ry
     estimated scf accuracy    <       0.00001129 Ry

     iteration # 18     ecut=    80.00 Ry     beta= 0.70
     Davidson diagonalization with overlap
     ethr =  2.02E-09,  avg # of iterations =  2.0

     total cpu time spent up to now is       98.5 secs

     total energy              =   -1757.91145159 Ry
     estimated scf accuracy    <       0.00000766 Ry

     iteration # 19     ecut=    80.00 Ry     beta= 0.70
     Davidson diagonalization with overlap
     ethr =  1.37E-09,  avg # of iterations =  6.0

     total cpu time spent up to now is      104.5 secs

     total energy              =   -1757.91145258 Ry
     estimated scf accuracy    <       0.00000322 Ry

     iteration # 20     ecut=    80.00 Ry     beta= 0.70
     Davidson diagonalization with overlap
     ethr =  5.75E-10,  avg # of iterations =  2.0

     total cpu time spent up to now is      108.3 secs

     total energy              =   -1757.91145208 Ry
     estimated scf accuracy    <       0.00000182 Ry

     iteration # 21     ecut=    80.00 Ry     beta= 0.70
     Davidson diagonalization with overlap
     ethr =  3.26E-10,  avg # of iterations =  8.0

     total cpu time spent up to now is      115.1 secs

     total energy              =   -1757.91145215 Ry
     estimated scf accuracy    <       0.00000309 Ry

     iteration # 22     ecut=    80.00 Ry     beta= 0.70
     Davidson diagonalization with overlap
     ethr =  3.26E-10,  avg # of iterations =  6.0

     total cpu time spent up to now is      121.5 secs

     total energy              =   -1757.91145248 Ry
     estimated scf accuracy    <       0.00000061 Ry

     iteration # 23     ecut=    80.00 Ry     beta= 0.70
     Davidson diagonalization with overlap
     ethr =  1.08E-10,  avg # of iterations =  4.0

     total cpu time spent up to now is      125.3 secs

     total energy              =   -1757.91145245 Ry
     estimated scf accuracy    <       0.00000035 Ry

     iteration # 24     ecut=    80.00 Ry     beta= 0.70
     Davidson diagonalization with overlap
     ethr =  6.30E-11,  avg # of iterations =  7.0

     total cpu time spent up to now is      131.4 secs

     total energy              =   -1757.91145245 Ry
     estimated scf accuracy    <       0.00000029 Ry

     iteration # 25     ecut=    80.00 Ry     beta= 0.70
     Davidson diagonalization with overlap
     ethr =  5.22E-11,  avg # of iterations =  2.0

     total cpu time spent up to now is      134.8 secs

     total energy              =   -1757.91145238 Ry
     estimated scf accuracy    <       0.00000018 Ry

     iteration # 26     ecut=    80.00 Ry     beta= 0.70
     Davidson diagonalization with overlap
     ethr =  3.30E-11,  avg # of iterations =  6.0

     total cpu time spent up to now is      140.5 secs

     total energy              =   -1757.91145243 Ry
     estimated scf accuracy    <       0.00000007 Ry

     iteration # 27     ecut=    80.00 Ry     beta= 0.70
     Davidson diagonalization with overlap
     ethr =  1.29E-11,  avg # of iterations =  9.0

     total cpu time spent up to now is      146.5 secs

     total energy              =   -1757.91145244 Ry
     estimated scf accuracy    <          4.9E-09 Ry

     iteration # 28     ecut=    80.00 Ry     beta= 0.70
     Davidson diagonalization with overlap
     ethr =  8.69E-13,  avg # of iterations =  9.0

     total cpu time spent up to now is      152.9 secs

     total energy              =   -1757.91145244 Ry
     estimated scf accuracy    <          7.2E-09 Ry

     iteration # 29     ecut=    80.00 Ry     beta= 0.70
     Davidson diagonalization with overlap
     ethr =  8.69E-13,  avg # of iterations =  2.0

     total cpu time spent up to now is      156.8 secs

     total energy              =   -1757.91145244 Ry
     estimated scf accuracy    <          3.6E-09 Ry

     iteration # 30     ecut=    80.00 Ry     beta= 0.70
     Davidson diagonalization with overlap
     ethr =  6.41E-13,  avg # of iterations =  5.0

     total cpu time spent up to now is      162.6 secs

     total energy              =   -1757.91145244 Ry
     estimated scf accuracy    <          1.5E-09 Ry

     iteration # 31     ecut=    80.00 Ry     beta= 0.70
     Davidson diagonalization with overlap
     ethr =  2.66E-13,  avg # of iterations =  6.0

     total cpu time spent up to now is      168.0 secs

     total energy              =   -1757.91145244 Ry
     estimated scf accuracy    <          4.4E-10 Ry

     iteration # 32     ecut=    80.00 Ry     beta= 0.70
     Davidson diagonalization with overlap
     ethr =  1.00E-13,  avg # of iterations =  2.0

     total cpu time spent up to now is      171.5 secs

     total energy              =   -1757.91145244 Ry
     estimated scf accuracy    <          3.2E-10 Ry

     iteration # 33     ecut=    80.00 Ry     beta= 0.70
     Davidson diagonalization with overlap
     ethr =  1.00E-13,  avg # of iterations =  2.0

     total cpu time spent up to now is      175.0 secs

     total energy              =   -1757.91145244 Ry
     estimated scf accuracy    <          2.5E-10 Ry

     iteration # 34     ecut=    80.00 Ry     beta= 0.70
     Davidson diagonalization with overlap
     ethr =  1.00E-13,  avg # of iterations =  2.0

     total cpu time spent up to now is      178.8 secs

     total energy              =   -1757.91145244 Ry
     estimated scf accuracy    <          1.7E-10 Ry

     iteration # 35     ecut=    80.00 Ry     beta= 0.70
     Davidson diagonalization with overlap
     ethr =  1.00E-13,  avg # of iterations =  2.0

     total cpu time spent up to now is      182.4 secs

     End of self-consistent calculation

          k = 0.0000 0.0000 0.0000 ( 73142 PWs)   bands (ev):

   -20.7057 -20.7057 -20.6720 -20.6719 -20.5716 -20.5714 -20.5700 -20.5697
   -19.6250 -19.6249 -19.6246 -19.6246 -17.4047 -17.4046 -17.3996 -17.3994
   -15.5800 -15.5770 -15.5706 -15.5660 -15.5234 -15.5168 -15.5113 -15.5067
   -15.2046 -15.1932 -15.1862 -15.1752 -13.9288 -13.9279 -13.9192 -13.9190
   -13.1611 -13.1522 -13.1450 -13.1341 -13.0155 -13.0065 -12.9907 -12.9877
   -12.9038 -12.8895 -12.8787 -12.8654 -12.7716 -12.7463 -12.6786 -12.6580
   -12.5138 -12.4966 -12.4937 -12.4798 -12.1786 -12.1657 -12.1621 -12.1527
   -11.5438 -11.5309 -11.5110 -11.4926 -11.3986 -11.3858 -11.3623 -11.3560
   -10.4775 -10.4743 -10.4669 -10.4650  -9.9234  -9.9218  -9.8994  -9.8979
    -9.3276  -9.3272  -9.3250  -9.3225  -9.2506  -9.2303  -9.2148  -9.1986
    -9.1905  -9.1620  -9.1579  -9.1539  -8.9563  -8.9483  -8.9387  -8.9262
    -8.2671  -8.2459  -8.2286  -8.1941  -8.0079  -7.9901  -7.9501  -7.9296
    -7.7150  -7.7133  -7.6055  -7.5877  -7.3043  -7.2791  -7.2316  -7.2273
    -7.1732  -7.1664  -7.1641  -7.1447  -6.9730  -6.9681  -6.8606  -6.8563
    -6.3413  -6.3322  -6.3118  -6.2940  -6.1490  -6.1378  -6.1029  -6.0634
    -6.0547  -6.0318  -6.0206  -6.0176  -5.7402  -5.7263  -5.6756  -5.6450
    -5.6393  -5.6341  -5.5890  -5.5885  -5.5763  -5.5415  -5.5102  -5.4724
    -5.3904  -5.3834  -5.3820  -5.3744  -5.3691  -5.3509  -5.3475  -5.3254
    -5.1240  -5.1160  -5.0853  -5.0604  -4.9375  -4.9316  -4.8724  -4.8669
    -4.6034  -4.5830  -4.5755  -4.5751  -4.5132  -4.4404  -4.4274  -4.4022
    -4.3866  -4.3307  -4.3029  -4.2979  -4.2918  -4.2600  -4.2504  -4.1818
    -4.1782  -4.1288  -4.0807  -4.0682  -3.9499  -3.9484  -3.9042  -3.8981
    -3.8062  -3.8028  -3.7796  -3.7629  -3.7298  -3.7207  -3.7201  -3.7192
    -3.5870  -3.5810  -3.5794  -3.5659  -3.4881  -3.4459  -3.3652  -3.3165
    -3.3065  -3.2840  -3.2697  -3.2324  -3.2023  -3.1926  -3.1634  -3.1463
    -2.8713  -2.8540  -2.8531  -2.8450  -2.6815  -2.6786  -2.6270  -2.6018
    -2.5605  -2.5088  -2.4961  -2.4470  -2.4459  -2.4418  -2.4236  -2.4230
    -2.3929  -2.3867  -2.3681  -2.3616  -2.3089  -2.2742  -2.2123  -2.2112
    -1.9626  -1.9617  -1.8997  -1.8772  -1.8412  -1.8224  -1.7942  -1.7849
    -1.6186  -1.6150  -1.6117  -1.6060  -1.4212  -1.4144  -1.3353  -1.2810
    -1.2643  -1.2222  -1.1214  -1.1185  -0.8037  -0.7930  -0.7556  -0.7511
    -0.6326  -0.6300  -0.5858  -0.5817  -0.1518  -0.1490   0.0516   0.0546
     0.2448   0.2771   0.2844   0.3277   0.3593   0.3815   0.3963   0.4439
     0.8526   0.8717   0.8911   0.8969   0.9096   0.9199   0.9358   0.9522
     0.9590   0.9719   0.9751   0.9926   1.0713   1.0782   1.1933   1.1984

     highest occupied level (ev):     1.1984

!    total energy              =   -1757.91145244 Ry
     estimated scf accuracy    <          9.7E-11 Ry

     The total energy is the sum of the following terms:
     one-electron contribution =   -1404.79378195 Ry
     hartree contribution      =     906.79415850 Ry
     xc contribution           =    -631.30188969 Ry
     ewald contribution        =    -628.60993931 Ry

     convergence has been achieved in  35 iterations

     Forces acting on atoms (cartesian axes, Ry/au):

     atom    1 type  1   force =    -0.02086040   -0.03409488   -0.16498745
     atom    2 type  1   force =    -0.01461765   -0.00149318   -0.07257168
     atom    3 type  1   force =    -0.01734875   -0.05531125   -0.03873587
     atom    4 type  2   force =     0.09475339    0.00489323    0.05865661
     atom    5 type  3   force =     0.10866499   -0.14968542   -0.12147730
     atom    6 type  4   force =    -0.15879959    0.23540408    0.17597541
     atom    7 type  3   force =    -0.03216408   -0.03374274   -0.23197122
     atom    8 type  4   force =     0.05779359    0.03119465    0.32904859
     atom    9 type  3   force =    -0.14540836    0.14072134   -0.08900130
     atom   10 type  4   force =     0.21028161   -0.19844802    0.16023641
     atom   11 type  3   force =     0.01737464   -0.03912557   -0.03850534
     atom   12 type  3   force =     0.02317245    0.02765525    0.22409672
     atom   13 type  4   force =    -0.05247119   -0.03901574   -0.32778931
     atom   14 type  3   force =    -0.03127705    0.03080680   -0.02157567
     atom   15 type  3   force =     0.09154094   -0.02426314    0.22467299
     atom   16 type  4   force =    -0.04536669   -0.08239009   -0.32828170
     atom   17 type  3   force =    -0.06911125    0.01329122   -0.19618916
     atom   18 type  4   force =     0.03777919    0.09332676    0.31953627
     atom   19 type  3   force =     0.00854267    0.01738787    0.08661498
     atom   20 type  3   force =     0.01437208   -0.02291590   -0.01735488
     atom   21 type  3   force =     0.01677532    0.06491837    0.22918848
     atom   22 type  4   force =    -0.02268981   -0.07775459   -0.32421886
     atom   23 type  3   force =     0.14256645   -0.14127175    0.13411076
     atom   24 type  4   force =    -0.19598621    0.17783624   -0.20638886
     atom   25 type  3   force =    -0.02731006    0.05669871    0.02347610
     atom   26 type  3   force =    -0.00998386   -0.07323291   -0.21592227
     atom   27 type  4   force =     0.03052190    0.08409471    0.32214807
     atom   28 type  3   force =    -0.14110402    0.12162305   -0.13922845
     atom   29 type  4   force =     0.19949383   -0.16957211    0.20759384
     atom   30 type  3   force =     0.06373964    0.19124963    0.17917733
     atom   31 type  4   force =    -0.15604478   -0.21044462   -0.23154180
     atom   32 type  3   force =     0.02089250   -0.04333743   -0.01732464
     atom   33 type  3   force =     0.06895087    0.15897099    0.16096517
     atom   34 type  4   force =    -0.11139180   -0.21949540   -0.22634210
     atom   35 type  3   force =    -0.03072759   -0.01304960   -0.02926558
     atom   36 type  3   force =     0.12367910   -0.16928509   -0.06383909
     atom   37 type  4   force =    -0.18582798    0.25707552    0.09499677
     atom   38 type  3   force =    -0.07043121   -0.15900358   -0.16616447
     atom   39 type  4   force =     0.10608843    0.21907706    0.23126655
     atom   40 type  3   force =    -0.20648901    0.03606883   -0.08393100
     atom   41 type  4   force =     0.29951732   -0.03755281    0.13395564
     atom   42 type  3   force =    -0.11923325    0.13090959   -0.06376703
     atom   43 type  4   force =     0.08146488   -0.14651654   -0.18519360
     atom   44 type  4   force =    -0.12184834   -0.14157272    0.18540892
     atom   45 type  4   force =     0.19854821    0.12633757    0.10583320
     atom   46 type  3   force =     0.09864348   -0.15463241   -0.00471223
     atom   47 type  4   force =    -0.19953658   -0.01971880   -0.15098224
     atom   48 type  4   force =     0.14721584    0.20518450   -0.07247384
     atom   49 type  4   force =    -0.07829112    0.03123976    0.24488207
     atom   50 type  1   force =     0.02086040   -0.03409488    0.16498745
     atom   51 type  1   force =     0.01461765   -0.00149318    0.07257168
     atom   52 type  1   force =     0.01734875   -0.05531125    0.03873587
     atom   53 type  2   force =    -0.09475339    0.00489323   -0.05865661
     atom   54 type  3   force =    -0.10866499   -0.14968542    0.12147730
     atom   55 type  4   force =     0.15879959    0.23540408   -0.17597541
     atom   56 type  3   force =     0.03216408   -0.03374274    0.23197122
     atom   57 type  4   force =    -0.05779359    0.03119465   -0.32904859
     atom   58 type  3   force =     0.14540836    0.14072134    0.08900130
     atom   59 type  4   force =    -0.21028161   -0.19844802   -0.16023641
     atom   60 type  3   force =    -0.01737464   -0.03912557    0.03850534
     atom   61 type  3   force =    -0.02317245    0.02765525   -0.22409672
     atom   62 type  4   force =     0.05247119   -0.03901574    0.32778931
     atom   63 type  3   force =     0.03127705    0.03080680    0.02157567
     atom   64 type  3   force =    -0.09154094   -0.02426314   -0.22467299
     atom   65 type  4   force =     0.04536669   -0.08239009    0.32828170
     atom   66 type  3   force =     0.06911125    0.01329122    0.19618916
     atom   67 type  4   force =    -0.03777919    0.09332676   -0.31953627
     atom   68 type  3   force =    -0.00854267    0.01738787   -0.08661498
     atom   69 type  3   force =    -0.01437208   -0.02291590    0.01735488
     atom   70 type  3   force =    -0.01677532    0.06491837   -0.22918848
     atom   71 type  4   force =     0.02268981   -0.07775459    0.32421886
     atom   72 type  3   force =    -0.14256645   -0.14127175   -0.13411076
     atom   73 type  4   force =     0.19598621    0.17783624    0.20638886
     atom   74 type  3   force =     0.02731006    0.05669871   -0.02347610
     atom   75 type  3   force =     0.00998386   -0.07323291    0.21592227
     atom   76 type  4   force =    -0.03052190    0.08409471   -0.32214807
     atom   77 type  3   force =     0.14110402    0.12162305    0.13922845
     atom   78 type  4   force =    -0.19949383   -0.16957211   -0.20759384
     atom   79 type  3   force =    -0.06373964    0.19124963   -0.17917733
     atom   80 type  4   force =     0.15604478   -0.21044462    0.23154180
     atom   81 type  3   force =    -0.02089250   -0.04333743    0.01732464
     atom   82 type  3   force =    -0.06895087    0.15897099   -0.16096517
     atom   83 type  4   force =     0.11139180   -0.21949540    0.22634210
     atom   84 type  3   force =     0.03072759   -0.01304960    0.02926558
     atom   85 type  3   force =    -0.12367910   -0.16928509    0.06383909
     atom   86 type  4   force =     0.18582798    0.25707552   -0.09499677
     atom   87 type  3   force =     0.07043121   -0.15900358    0.16616447
     atom   88 type  4   force =    -0.10608843    0.21907706   -0.23126655
     atom   89 type  3   force =     0.20648901    0.03606883    0.08393100
     atom   90 type  4   force =    -0.29951732   -0.03755281   -0.13395564
     atom   91 type  3   force =     0.11923325    0.13090959    0.06376703
     atom   92 type  4   force =    -0.08146488   -0.14651654    0.18519360
     atom   93 type  4   force =     0.12184834   -0.14157272   -0.18540892
     atom   94 type  4   force =    -0.19854821    0.12633757   -0.10583320
     atom   95 type  3   force =    -0.09864348   -0.15463241    0.00471223
     atom   96 type  4   force =     0.19953658   -0.01971880    0.15098224
     atom   97 type  4   force =    -0.14721584    0.20518450    0.07247384
     atom   98 type  4   force =     0.07829112    0.03123976   -0.24488207
     atom   99 type  1   force =     0.02086040    0.03409488    0.16498745
     atom  100 type  1   force =     0.01461765    0.00149318    0.07257168
     atom  101 type  1   force =     0.01734875    0.05531125    0.03873587
     atom  102 type  2   force =    -0.09475339   -0.00489323   -0.05865661
     atom  103 type  3   force =    -0.10866499    0.14968542    0.12147730
     atom  104 type  4   force =     0.15879959   -0.23540408   -0.17597541
     atom  105 type  3   force =     0.03216408    0.03374274    0.23197122
     atom  106 type  4   force =    -0.05779359   -0.03119465   -0.32904859
     atom  107 type  3   force =     0.14540836   -0.14072134    0.08900130
     atom  108 type  4   force =    -0.21028161    0.19844802   -0.16023641
     atom  109 type  3   force =    -0.01737464    0.03912557    0.03850534
     atom  110 type  3   force =    -0.02317245   -0.02765525   -0.22409672
     atom  111 type  4   force =     0.05247119    0.03901574    0.32778931
     atom  112 type  3   force =     0.03127705   -0.03080680    0.02157567
     atom  113 type  3   force =    -0.09154094    0.02426314   -0.22467299
     atom  114 type  4   force =     0.04536669    0.08239009    0.32828170
     atom  115 type  3   force =     0.06911125   -0.01329122    0.19618916
     atom  116 type  4   force =    -0.03777919   -0.09332676   -0.31953627
     atom  117 type  3   force =    -0.00854267   -0.01738787   -0.08661498
     atom  118 type  3   force =    -0.01437208    0.02291590    0.01735488
     atom  119 type  3   force =    -0.01677532   -0.06491837   -0.22918848
     atom  120 type  4   force =     0.02268981    0.07775459    0.32421886
     atom  121 type  3   force =    -0.14256645    0.14127175   -0.13411076
     atom  122 type  4   force =     0.19598621   -0.17783624    0.20638886
     atom  123 type  3   force =     0.02731006   -0.05669871   -0.02347610
     atom  124 type  3   force =     0.00998386    0.07323291    0.21592227
     atom  125 type  4   force =    -0.03052190   -0.08409471   -0.32214807
     atom  126 type  3   force =     0.14110402   -0.12162305    0.13922845
     atom  127 type  4   force =    -0.19949383    0.16957211   -0.20759384
     atom  128 type  3   force =    -0.06373964   -0.19124963   -0.17917733
     atom  129 type  4   force =     0.15604478    0.21044462    0.23154180
     atom  130 type  3   force =    -0.02089250    0.04333743    0.01732464
     atom  131 type  3   force =    -0.06895087   -0.15897099   -0.16096517
     atom  132 type  4   force =     0.11139180    0.21949540    0.22634210
     atom  133 type  3   force =     0.03072759    0.01304960    0.02926558
     atom  134 type  3   force =    -0.12367910    0.16928509    0.06383909
     atom  135 type  4   force =     0.18582798   -0.25707552   -0.09499677
     atom  136 type  3   force =     0.07043121    0.15900358    0.16616447
     atom  137 type  4   force =    -0.10608843   -0.21907706   -0.23126655
     atom  138 type  3   force =     0.20648901   -0.03606883    0.08393100
     atom  139 type  4   force =    -0.29951732    0.03755281   -0.13395564
     atom  140 type  3   force =     0.11923325   -0.13090959    0.06376703
     atom  141 type  4   force =    -0.08146488    0.14651654    0.18519360
     atom  142 type  4   force =     0.12184834    0.14157272   -0.18540892
     atom  143 type  4   force =    -0.19854821   -0.12633757   -0.10583320
     atom  144 type  3   force =    -0.09864348    0.15463241    0.00471223
     atom  145 type  4   force =     0.19953658    0.01971880    0.15098224
     atom  146 type  4   force =    -0.14721584   -0.20518450    0.07247384
     atom  147 type  4   force =     0.07829112   -0.03123976   -0.24488207
     atom  148 type  1   force =    -0.02086040    0.03409488   -0.16498745
     atom  149 type  1   force =    -0.01461765    0.00149318   -0.07257168
     atom  150 type  1   force =    -0.01734875    0.05531125   -0.03873587
     atom  151 type  2   force =     0.09475339   -0.00489323    0.05865661
     atom  152 type  3   force =     0.10866499    0.14968542   -0.12147730
     atom  153 type  4   force =    -0.15879959   -0.23540408    0.17597541
     atom  154 type  3   force =    -0.03216408    0.03374274   -0.23197122
     atom  155 type  4   force =     0.05779359   -0.03119465    0.32904859
     atom  156 type  3   force =    -0.14540836   -0.14072134   -0.08900130
     atom  157 type  4   force =     0.21028161    0.19844802    0.16023641
     atom  158 type  3   force =     0.01737464    0.03912557   -0.03850534
     atom  159 type  3   force =     0.02317245   -0.02765525    0.22409672
     atom  160 type  4   force =    -0.05247119    0.03901574   -0.32778931
     atom  161 type  3   force =    -0.03127705   -0.03080680   -0.02157567
     atom  162 type  3   force =     0.09154094    0.02426314    0.22467299
     atom  163 type  4   force =    -0.04536669    0.08239009   -0.32828170
     atom  164 type  3   force =    -0.06911125   -0.01329122   -0.19618916
     atom  165 type  4   force =     0.03777919   -0.09332676    0.31953627
     atom  166 type  3   force =     0.00854267   -0.01738787    0.08661498
     atom  167 type  3   force =     0.01437208    0.02291590   -0.01735488
     atom  168 type  3   force =     0.01677532   -0.06491837    0.22918848
     atom  169 type  4   force =    -0.02268981    0.07775459   -0.32421886
     atom  170 type  3   force =     0.14256645    0.14127175    0.13411076
     atom  171 type  4   force =    -0.19598621   -0.17783624   -0.20638886
     atom  172 type  3   force =    -0.02731006   -0.05669871    0.02347610
     atom  173 type  3   force =    -0.00998386    0.07323291   -0.21592227
     atom  174 type  4   force =     0.03052190   -0.08409471    0.32214807
     atom  175 type  3   force =    -0.14110402   -0.12162305   -0.13922845
     atom  176 type  4   force =     0.19949383    0.16957211    0.20759384
     atom  177 type  3   force =     0.06373964   -0.19124963    0.17917733
     atom  178 type  4   force =    -0.15604478    0.21044462   -0.23154180
     atom  179 type  3   force =     0.02089250    0.04333743   -0.01732464
     atom  180 type  3   force =     0.06895087   -0.15897099    0.16096517
     atom  181 type  4   force =    -0.11139180    0.21949540   -0.22634210
     atom  182 type  3   force =    -0.03072759    0.01304960   -0.02926558
     atom  183 type  3   force =     0.12367910    0.16928509   -0.06383909
     atom  184 type  4   force =    -0.18582798   -0.25707552    0.09499677
     atom  185 type  3   force =    -0.07043121    0.15900358   -0.16616447
     atom  186 type  4   force =     0.10608843   -0.21907706    0.23126655
     atom  187 type  3   force =    -0.20648901   -0.03606883   -0.08393100
     atom  188 type  4   force =     0.29951732    0.03755281    0.13395564
     atom  189 type  3   force =    -0.11923325   -0.13090959   -0.06376703
     atom  190 type  4   force =     0.08146488    0.14651654   -0.18519360
     atom  191 type  4   force =    -0.12184834    0.14157272    0.18540892
     atom  192 type  4   force =     0.19854821   -0.12633757    0.10583320
     atom  193 type  3   force =     0.09864348    0.15463241   -0.00471223
     atom  194 type  4   force =    -0.19953658    0.01971880   -0.15098224
     atom  195 type  4   force =     0.14721584   -0.20518450   -0.07247384
     atom  196 type  4   force =    -0.07829112   -0.03123976    0.24488207
     The non-local contrib.  to forces
     atom    1 type  1   force =     0.28342130    0.50674440    2.37416181
     atom    2 type  1   force =     0.41301515    0.19738118    2.24699736
     atom    3 type  1   force =     0.83123905    1.66069032    1.32282621
     atom    4 type  2   force =    -0.70188853   -0.82790021   -1.05087638
     atom    5 type  3   force =     0.07548008   -0.09198638   -0.12747807
     atom    6 type  4   force =     0.05616090   -0.08399168   -0.06263571
     atom    7 type  3   force =    -0.00798403   -0.05719274   -0.21812023
     atom    8 type  4   force =    -0.02032278   -0.01266279   -0.11953192
     atom    9 type  3   force =    -0.11916721    0.08663558   -0.13546764
     atom   10 type  4   force =    -0.07573825    0.07208723   -0.05708131
     atom   11 type  3   force =     0.21863559   -0.35544087   -0.31977218
     atom   12 type  3   force =     0.04897912   -0.00949448    0.21566684
     atom   13 type  4   force =     0.02045468    0.01384783    0.11813291
     atom   14 type  3   force =    -0.05379330    0.04368513   -0.07060990
     atom   15 type  3   force =     0.11998475   -0.07471550    0.21211589
     atom   16 type  4   force =     0.02063411    0.02543864    0.11765268
     atom   17 type  3   force =    -0.07682832    0.06213112   -0.13963669
     atom   18 type  4   force =    -0.01753619   -0.03046503   -0.11404319
     atom   19 type  3   force =    -0.01883587   -0.01998440   -0.11391811
     atom   20 type  3   force =     0.02789875   -0.01788588   -0.01346352
     atom   21 type  3   force =     0.02575585    0.06238469    0.22542041
     atom   22 type  4   force =     0.00852183    0.02861528    0.11856346
     atom   23 type  3   force =     0.10972910   -0.08396756    0.13787055
     atom   24 type  4   force =     0.07047158   -0.06316968    0.07358252
     atom   25 type  3   force =    -0.09980017    0.27061279    0.10699032
     atom   26 type  3   force =    -0.03064698   -0.07430584   -0.18343021
     atom   27 type  4   force =    -0.01230651   -0.03062096   -0.11565520
     atom   28 type  3   force =    -0.10389344    0.07995866   -0.11009332
     atom   29 type  4   force =    -0.07170015    0.06258710   -0.07354142
     atom   30 type  3   force =     0.18663958    0.17785988    0.24565807
     atom   31 type  4   force =     0.04923529    0.07896869    0.08192931
     atom   32 type  3   force =     0.02480892   -0.09842782   -0.03930557
     atom   33 type  3   force =     0.05450441    0.17440412    0.18365934
     atom   34 type  4   force =     0.04044552    0.08089105    0.08229634
     atom   35 type  3   force =    -0.46419488    0.02279307   -0.22900370
     atom   36 type  3   force =     0.08779139   -0.16365596   -0.10119396
     atom   37 type  4   force =     0.06847531   -0.09329156   -0.03323813
     atom   38 type  3   force =    -0.08994948   -0.09976651   -0.12873326
     atom   39 type  4   force =    -0.03890863   -0.07767489   -0.08320270
     atom   40 type  3   force =    -0.19920072    0.00519591   -0.10042415
     atom   41 type  4   force =    -0.10955588    0.01351981   -0.04855965
     atom   42 type  3   force =    -0.39878928    0.40477241   -0.23038184
     atom   43 type  4   force =    -0.04092748    0.07003741    0.07720371
     atom   44 type  4   force =     0.05149219    0.05994899   -0.07756414
     atom   45 type  4   force =    -0.08492226   -0.05504523   -0.04533632
     atom   46 type  3   force =     0.29744891   -0.51390051   -0.04649078
     atom   47 type  4   force =     0.09051502    0.00145895    0.06436181
     atom   48 type  4   force =    -0.06347488   -0.08621361    0.03033987
     atom   49 type  4   force =     0.03169104   -0.01255663   -0.10538211
     atom   50 type  1   force =    -0.28342130    0.50674440   -2.37416181
     atom   51 type  1   force =    -0.41301515    0.19738118   -2.24699736
     atom   52 type  1   force =    -0.83123905    1.66069032   -1.32282621
     atom   53 type  2   force =     0.70188853   -0.82790021    1.05087638
     atom   54 type  3   force =    -0.07548008   -0.09198638    0.12747807
     atom   55 type  4   force =    -0.05616090   -0.08399168    0.06263571
     atom   56 type  3   force =     0.00798403   -0.05719274    0.21812023
     atom   57 type  4   force =     0.02032278   -0.01266279    0.11953192
     atom   58 type  3   force =     0.11916721    0.08663558    0.13546764
     atom   59 type  4   force =     0.07573825    0.07208723    0.05708131
     atom   60 type  3   force =    -0.21863559   -0.35544087    0.31977218
     atom   61 type  3   force =    -0.04897912   -0.00949448   -0.21566684
     atom   62 type  4   force =    -0.02045468    0.01384783   -0.11813291
     atom   63 type  3   force =     0.05379330    0.04368513    0.07060990
     atom   64 type  3   force =    -0.11998475   -0.07471550   -0.21211589
     atom   65 type  4   force =    -0.02063411    0.02543864   -0.11765268
     atom   66 type  3   force =     0.07682832    0.06213112    0.13963669
     atom   67 type  4   force =     0.01753619   -0.03046503    0.11404319
     atom   68 type  3   force =     0.01883587   -0.01998440    0.11391811
     atom   69 type  3   force =    -0.02789875   -0.01788588    0.01346352
     atom   70 type  3   force =    -0.02575585    0.06238469   -0.22542041
     atom   71 type  4   force =    -0.00852183    0.02861528   -0.11856346
     atom   72 type  3   force =    -0.10972910   -0.08396756   -0.13787055
     atom   73 type  4   force =    -0.07047158   -0.06316968   -0.07358252
     atom   74 type  3   force =     0.09980017    0.27061279   -0.10699032
     atom   75 type  3   force =     0.03064698   -0.07430584    0.18343021
     atom   76 type  4   force =     0.01230651   -0.03062096    0.11565520
     atom   77 type  3   force =     0.10389344    0.07995866    0.11009332
     atom   78 type  4   force =     0.07170015    0.06258710    0.07354142
     atom   79 type  3   force =    -0.18663958    0.17785988   -0.24565807
     atom   80 type  4   force =    -0.04923529    0.07896869   -0.08192931
     atom   81 type  3   force =    -0.02480892   -0.09842782    0.03930557
     atom   82 type  3   force =    -0.05450441    0.17440412   -0.18365934
     atom   83 type  4   force =    -0.04044552    0.08089105   -0.08229634
     atom   84 type  3   force =     0.46419488    0.02279307    0.22900370
     atom   85 type  3   force =    -0.08779139   -0.16365596    0.10119396
     atom   86 type  4   force =    -0.06847531   -0.09329156    0.03323813
     atom   87 type  3   force =     0.08994948   -0.09976651    0.12873326
     atom   88 type  4   force =     0.03890863   -0.07767489    0.08320270
     atom   89 type  3   force =     0.19920072    0.00519591    0.10042415
     atom   90 type  4   force =     0.10955588    0.01351981    0.04855965
     atom   91 type  3   force =     0.39878928    0.40477241    0.23038184
     atom   92 type  4   force =     0.04092748    0.07003741   -0.07720371
     atom   93 type  4   force =    -0.05149219    0.05994899    0.07756414
     atom   94 type  4   force =     0.08492226   -0.05504523    0.04533632
     atom   95 type  3   force =    -0.29744891   -0.51390051    0.04649078
     atom   96 type  4   force =    -0.09051502    0.00145895   -0.06436181
     atom   97 type  4   force =     0.06347488   -0.08621361   -0.03033987
     atom   98 type  4   force =    -0.03169104   -0.01255663    0.10538211
     atom   99 type  1   force =    -0.28342130   -0.50674440   -2.37416181
     atom  100 type  1   force =    -0.41301515   -0.19738118   -2.24699736
     atom  101 type  1   force =    -0.83123905   -1.66069032   -1.32282621
     atom  102 type  2   force =     0.70188853    0.82790021    1.05087638
     atom  103 type  3   force =    -0.07548008    0.09198638    0.12747807
     atom  104 type  4   force =    -0.05616090    0.08399168    0.06263571
     atom  105 type  3   force =     0.00798403    0.05719274    0.21812023
     atom  106 type  4   force =     0.02032278    0.01266279    0.11953192
     atom  107 type  3   force =     0.11916721   -0.08663558    0.13546764
     atom  108 type  4   force =     0.07573825   -0.07208723    0.05708131
     atom  109 type  3   force =    -0.21863559    0.35544087    0.31977218
     atom  110 type  3   force =    -0.04897912    0.00949448   -0.21566684
     atom  111 type  4   force =    -0.02045468   -0.01384783   -0.11813291
     atom  112 type  3   force =     0.05379330   -0.04368513    0.07060990
     atom  113 type  3   force =    -0.11998475    0.07471550   -0.21211589
     atom  114 type  4   force =    -0.02063411   -0.02543864   -0.11765268
     atom  115 type  3   force =     0.07682832   -0.06213112    0.13963669
     atom  116 type  4   force =     0.01753619    0.03046503    0.11404319
     atom  117 type  3   force =     0.01883587    0.01998440    0.11391811
     atom  118 type  3   force =    -0.02789875    0.01788588    0.01346352
     atom  119 type  3   force =    -0.02575585   -0.06238469   -0.22542041
     atom  120 type  4   force =    -0.00852183   -0.02861528   -0.11856346
     atom  121 type  3   force =    -0.10972910    0.08396756   -0.13787055
     atom  122 type  4   force =    -0.07047158    0.06316968   -0.07358252
     atom  123 type  3   force =     0.09980017   -0.27061279   -0.10699032
     atom  124 type  3   force =     0.03064698    0.07430584    0.18343021
     atom  125 type  4   force =     0.01230651    0.03062096    0.11565520
     atom  126 type  3   force =     0.10389344   -0.07995866    0.11009332
     atom  127 type  4   force =     0.07170015   -0.06258710    0.07354142
     atom  128 type  3   force =    -0.18663958   -0.17785988   -0.24565807
     atom  129 type  4   force =    -0.04923529   -0.07896869   -0.08192931
     atom  130 type  3   force =    -0.02480892    0.09842782    0.03930557
     atom  131 type  3   force =    -0.05450441   -0.17440412   -0.18365934
     atom  132 type  4   force =    -0.04044552   -0.08089105   -0.08229634
     atom  133 type  3   force =     0.46419488   -0.02279307    0.22900370
     atom  134 type  3   force =    -0.08779139    0.16365596    0.10119396
     atom  135 type  4   force =    -0.06847531    0.09329156    0.03323813
     atom  136 type  3   force =     0.08994948    0.09976651    0.12873326
     atom  137 type  4   force =     0.03890863    0.07767489    0.08320270
     atom  138 type  3   force =     0.19920072   -0.00519591    0.10042415
     atom  139 type  4   force =     0.10955588   -0.01351981    0.04855965
     atom  140 type  3   force =     0.39878928   -0.40477241    0.23038184
     atom  141 type  4   force =     0.04092748   -0.07003741   -0.07720371
     atom  142 type  4   force =    -0.05149219   -0.05994899    0.07756414
     atom  143 type  4   force =     0.08492226    0.05504523    0.04533632
     atom  144 type  3   force =    -0.29744891    0.51390051    0.04649078
     atom  145 type  4   force =    -0.09051502   -0.00145895   -0.06436181
     atom  146 type  4   force =     0.06347488    0.08621361   -0.03033987
     atom  147 type  4   force =    -0.03169104    0.01255663    0.10538211
     atom  148 type  1   force =     0.28342130   -0.50674440    2.37416181
     atom  149 type  1   force =     0.41301515   -0.19738118    2.24699736
     atom  150 type  1   force =     0.83123905   -1.66069032    1.32282621
     atom  151 type  2   force =    -0.70188853    0.82790021   -1.05087638
     atom  152 type  3   force =     0.07548008    0.09198638   -0.12747807
     atom  153 type  4   force =     0.05616090    0.08399168   -0.06263571
     atom  154 type  3   force =    -0.00798403    0.05719274   -0.21812023
     atom  155 type  4   force =    -0.02032278    0.01266279   -0.11953192
     atom  156 type  3   force =    -0.11916721   -0.08663558   -0.13546764
     atom  157 type  4   force =    -0.07573825   -0.07208723   -0.05708131
     atom  158 type  3   force =     0.21863559    0.35544087   -0.31977218
     atom  159 type  3   force =     0.04897912    0.00949448    0.21566684
     atom  160 type  4   force =     0.02045468   -0.01384783    0.11813291
     atom  161 type  3   force =    -0.05379330   -0.04368513   -0.07060990
     atom  162 type  3   force =     0.11998475    0.07471550    0.21211589
     atom  163 type  4   force =     0.02063411   -0.02543864    0.11765268
     atom  164 type  3   force =    -0.07682832   -0.06213112   -0.13963669
     atom  165 type  4   force =    -0.01753619    0.03046503   -0.11404319
     atom  166 type  3   force =    -0.01883587    0.01998440   -0.11391811
     atom  167 type  3   force =     0.02789875    0.01788588   -0.01346352
     atom  168 type  3   force =     0.02575585   -0.06238469    0.22542041
     atom  169 type  4   force =     0.00852183   -0.02861528    0.11856346
     atom  170 type  3   force =     0.10972910    0.08396756    0.13787055
     atom  171 type  4   force =     0.07047158    0.06316968    0.07358252
     atom  172 type  3   force =    -0.09980017   -0.27061279    0.10699032
     atom  173 type  3   force =    -0.03064698    0.07430584   -0.18343021
     atom  174 type  4   force =    -0.01230651    0.03062096   -0.11565520
     atom  175 type  3   force =    -0.10389344   -0.07995866   -0.11009332
     atom  176 type  4   force =    -0.07170015   -0.06258710   -0.07354142
     atom  177 type  3   force =     0.18663958   -0.17785988    0.24565807
     atom  178 type  4   force =     0.04923529   -0.07896869    0.08192931
     atom  179 type  3   force =     0.02480892    0.09842782   -0.03930557
     atom  180 type  3   force =     0.05450441   -0.17440412    0.18365934
     atom  181 type  4   force =     0.04044552   -0.08089105    0.08229634
     atom  182 type  3   force =    -0.46419488   -0.02279307   -0.22900370
     atom  183 type  3   force =     0.08779139    0.16365596   -0.10119396
     atom  184 type  4   force =     0.06847531    0.09329156   -0.03323813
     atom  185 type  3   force =    -0.08994948    0.09976651   -0.12873326
     atom  186 type  4   force =    -0.03890863    0.07767489   -0.08320270
     atom  187 type  3   force =    -0.19920072   -0.00519591   -0.10042415
     atom  188 type  4   force =    -0.10955588   -0.01351981   -0.04855965
     atom  189 type  3   force =    -0.39878928   -0.40477241   -0.23038184
     atom  190 type  4   force =    -0.04092748   -0.07003741    0.07720371
     atom  191 type  4   force =     0.05149219   -0.05994899   -0.07756414
     atom  192 type  4   force =    -0.08492226    0.05504523   -0.04533632
     atom  193 type  3   force =     0.29744891    0.51390051   -0.04649078
     atom  194 type  4   force =     0.09051502   -0.00145895    0.06436181
     atom  195 type  4   force =    -0.06347488    0.08621361    0.03033987
     atom  196 type  4   force =     0.03169104    0.01255663   -0.10538211
     The ionic contribution  to forces
     atom    1 type  1   force =    -0.64739159   -2.80020101  -10.74517411
     atom    2 type  1   force =    -0.07705629   -2.32601867   -7.24587568
     atom    3 type  1   force =    -6.06224704   -5.74729178   -3.90515546
     atom    4 type  2   force =     4.25741493    3.40490183    6.42309368
     atom    5 type  3   force =    -1.94678453    2.73230967    4.56749789
     atom    6 type  4   force =    -1.57273726    2.24519728    2.32736168
     atom    7 type  3   force =     0.04984264    0.49356877    4.98634565
     atom    8 type  4   force =     0.18033758    0.40775625    2.86341497
     atom    9 type  3   force =     2.02729443   -1.76339071    4.38047203
     atom   10 type  4   force =     1.94406229   -1.85460463    1.97754932
     atom   11 type  3   force =    -0.24731185    0.60705851    1.52330492
     atom   12 type  3   force =    -0.68591090    0.10367380   -3.02967654
     atom   13 type  4   force =    -0.51933025   -0.28672238   -3.09581285
     atom   14 type  3   force =    -0.92025583    1.28897665    0.55220662
     atom   15 type  3   force =     1.05185943   -1.01529248   -1.17038570
     atom   16 type  4   force =    -0.08675533   -0.78601005   -3.02389778
     atom   17 type  3   force =     0.68313372    1.08876121    3.92684022
     atom   18 type  4   force =     0.53109965    0.79962465    3.64329272
     atom   19 type  3   force =     1.10371098    0.57059261    4.26897120
     atom   20 type  3   force =     0.84915632   -0.97580254    0.98895126
     atom   21 type  3   force =    -1.07426069   -0.19101902   -3.30471713
     atom   22 type  4   force =    -0.52344055   -0.47836887   -3.00527395
     atom   23 type  3   force =    -2.12756409    1.43823272   -2.73297644
     atom   24 type  4   force =    -1.77957279    1.55993944   -2.10511080
     atom   25 type  3   force =     0.16166374    0.32499103    1.72415896
     atom   26 type  3   force =     1.69739867    0.27063169    6.06915264
     atom   27 type  4   force =     0.73624506    0.58509830    3.46128479
     atom   28 type  3   force =     2.63901266   -1.69255513    5.19670090
     atom   29 type  4   force =     2.03378309   -1.52246128    2.75503347
     atom   30 type  3   force =    -2.81526063   -0.36237868   -0.78865350
     atom   31 type  4   force =    -1.39567367   -1.83266815   -1.90587943
     atom   32 type  3   force =     1.11253925   -1.40352467    0.68214843
     atom   33 type  3   force =    -1.31943489   -3.00904132   -1.80673828
     atom   34 type  4   force =    -1.24502973   -2.08206899   -1.89224698
     atom   35 type  3   force =     0.04552851   -0.39651673    1.03463647
     atom   36 type  3   force =    -1.25503815    3.41670006    2.74170261
     atom   37 type  4   force =    -1.58116084    2.50731348    1.08002344
     atom   38 type  3   force =     1.89622434    2.66543826    4.15250467
     atom   39 type  4   force =     1.24308288    1.97270794    2.44657348
     atom   40 type  3   force =     3.95911981    0.17305636    3.50170288
     atom   41 type  4   force =     2.93223840   -0.13756396    1.84103318
     atom   42 type  3   force =     3.55720891   -3.57063186    2.14363218
     atom   43 type  4   force =     1.35155185   -1.87531709   -1.52873275
     atom   44 type  4   force =    -0.75236977   -1.81918593    2.40609069
     atom   45 type  4   force =     2.44293434    0.80592370    1.48451751
     atom   46 type  3   force =    -3.99838977    4.04060588    0.53063589
     atom   47 type  4   force =    -2.43704976    0.35097792   -1.39424709
     atom   48 type  4   force =     0.88570098    2.75786585   -0.63428460
     atom   49 type  4   force =    -1.43765121    0.68542572    2.67126071
     atom   50 type  1   force =     0.64739159   -2.80020101   10.74517412
     atom   51 type  1   force =     0.07705627   -2.32601871    7.24587574
     atom   52 type  1   force =     6.06224707   -5.74729179    3.90515549
     atom   53 type  2   force =    -4.25741493    3.40490183   -6.42309366
     atom   54 type  3   force =     1.94678453    2.73230973   -4.56749785
     atom   55 type  4   force =     1.57273726    2.24519728   -2.32736168
     atom   56 type  3   force =    -0.04984261    0.49356872   -4.98634567
     atom   57 type  4   force =    -0.18033760    0.40775625   -2.86341495
     atom   58 type  3   force =    -2.02729444   -1.76339071   -4.38047196
     atom   59 type  4   force =    -1.94406232   -1.85460465   -1.97754931
     atom   60 type  3   force =     0.24731178    0.60705859   -1.52330499
     atom   61 type  3   force =     0.68591091    0.10367370    3.02967658
     atom   62 type  4   force =     0.51933021   -0.28672237    3.09581281
     atom   63 type  3   force =     0.92025584    1.28897676   -0.55220659
     atom   64 type  3   force =    -1.05185945   -1.01529258    1.17038569
     atom   65 type  4   force =     0.08675533   -0.78601006    3.02389778
     atom   66 type  3   force =    -0.68313372    1.08876125   -3.92684023
     atom   67 type  4   force =    -0.53109965    0.79962465   -3.64329272
     atom   68 type  3   force =    -1.10371097    0.57059262   -4.26897119
     atom   69 type  3   force =    -0.84915631   -0.97580254   -0.98895126
     atom   70 type  3   force =     1.07426070   -0.19101901    3.30471714
     atom   71 type  4   force =     0.52344056   -0.47836887    3.00527395
     atom   72 type  3   force =     2.12756410    1.43823275    2.73297648
     atom   73 type  4   force =     1.77957278    1.55993940    2.10511077
     atom   74 type  3   force =    -0.16166374    0.32499103   -1.72415895
     atom   75 type  3   force =    -1.69739870    0.27063170   -6.06915268
     atom   76 type  4   force =    -0.73624503    0.58509827   -3.46128473
     atom   77 type  3   force =    -2.63901265   -1.69255512   -5.19670090
     atom   78 type  4   force =    -2.03378308   -1.52246128   -2.75503347
     atom   79 type  3   force =     2.81526061   -0.36237864    0.78865350
     atom   80 type  4   force =     1.39567370   -1.83266819    1.90587945
     atom   81 type  3   force =    -1.11253925   -1.40352466   -0.68214841
     atom   82 type  3   force =     1.31943488   -3.00904127    1.80673828
     atom   83 type  4   force =     1.24502975   -2.08206903    1.89224700
     atom   84 type  3   force =    -0.04552851   -0.39651673   -1.03463645
     atom   85 type  3   force =     1.25503812    3.41670009   -2.74170258
     atom   86 type  4   force =     1.58116083    2.50731344   -1.08002342
     atom   87 type  3   force =    -1.89622428    2.66543819   -4.15250465
     atom   88 type  4   force =    -1.24308289    1.97270798   -2.44657348
     atom   89 type  3   force =    -3.95911982    0.17305638   -3.50170282
     atom   90 type  4   force =    -2.93223837   -0.13756396   -1.84103318
     atom   91 type  3   force =    -3.55720892   -3.57063186   -2.14363212
     atom   92 type  4   force =    -1.35155187   -1.87531707    1.52873273
     atom   93 type  4   force =     0.75236975   -1.81918595   -2.40609071
     atom   94 type  4   force =    -2.44293435    0.80592370   -1.48451750
     atom   95 type  3   force =     3.99838981    4.04060589   -0.53063591
     atom   96 type  4   force =     2.43704976    0.35097792    1.39424709
     atom   97 type  4   force =    -0.88570098    2.75786585    0.63428461
     atom   98 type  4   force =     1.43765119    0.68542571   -2.67126065
     atom   99 type  1   force =     0.64739162    2.80020106   10.74517427
     atom  100 type  1   force =     0.07705630    2.32601863    7.24587570
     atom  101 type  1   force =     6.06224696    5.74729179    3.90515546
     atom  102 type  2   force =    -4.25741495   -3.40490178   -6.42309368
     atom  103 type  3   force =     1.94678450   -2.73230965   -4.56749790
     atom  104 type  4   force =     1.57273726   -2.24519728   -2.32736168
     atom  105 type  3   force =    -0.04984258   -0.49356879   -4.98634558
     atom  106 type  4   force =    -0.18033759   -0.40775626   -2.86341503
     atom  107 type  3   force =    -2.02729441    1.76339072   -4.38047196
     atom  108 type  4   force =    -1.94406229    1.85460463   -1.97754932
     atom  109 type  3   force =     0.24731185   -0.60705857   -1.52330502
     atom  110 type  3   force =     0.68591091   -0.10367378    3.02967658
     atom  111 type  4   force =     0.51933023    0.28672238    3.09581280
     atom  112 type  3   force =     0.92025585   -1.28897668   -0.55220663
     atom  113 type  3   force =    -1.05185946    1.01529249    1.17038570
     atom  114 type  4   force =     0.08675535    0.78601006    3.02389777
     atom  115 type  3   force =    -0.68313374   -1.08876122   -3.92684030
     atom  116 type  4   force =    -0.53109963   -0.79962463   -3.64329267
     atom  117 type  3   force =    -1.10371100   -0.57059267   -4.26897137
     atom  118 type  3   force =    -0.84915632    0.97580250   -0.98895135
     atom  119 type  3   force =     1.07426070    0.19101902    3.30471711
     atom  120 type  4   force =     0.52344056    0.47836888    3.00527394
     atom  121 type  3   force =     2.12756410   -1.43823273    2.73297642
     atom  122 type  4   force =     1.77957279   -1.55993944    2.10511079
     atom  123 type  3   force =    -0.16166372   -0.32499107   -1.72415894
     atom  124 type  3   force =    -1.69739868   -0.27063173   -6.06915267
     atom  125 type  4   force =    -0.73624503   -0.58509827   -3.46128474
     atom  126 type  3   force =    -2.63901264    1.69255515   -5.19670084
     atom  127 type  4   force =    -2.03378311    1.52246131   -2.75503348
     atom  128 type  3   force =     2.81526061    0.36237870    0.78865348
     atom  129 type  4   force =     1.39567367    1.83266816    1.90587943
     atom  130 type  3   force =    -1.11253926    1.40352459   -0.68214841
     atom  131 type  3   force =     1.31943488    3.00904124    1.80673829
     atom  132 type  4   force =     1.24502975    2.08206903    1.89224699
     atom  133 type  3   force =    -0.04552846    0.39651675   -1.03463650
     atom  134 type  3   force =     1.25503815   -3.41670006   -2.74170262
     atom  135 type  4   force =     1.58116085   -2.50731346   -1.08002340
     atom  136 type  3   force =    -1.89622431   -2.66543821   -4.15250463
     atom  137 type  4   force =    -1.24308290   -1.97270798   -2.44657349
     atom  138 type  3   force =    -3.95911978   -0.17305631   -3.50170285
     atom  139 type  4   force =    -2.93223840    0.13756397   -1.84103318
     atom  140 type  3   force =    -3.55720897    3.57063196   -2.14363216
     atom  141 type  4   force =    -1.35155187    1.87531708    1.52873273
     atom  142 type  4   force =     0.75236976    1.81918595   -2.40609072
     atom  143 type  4   force =    -2.44293436   -0.80592370   -1.48451751
     atom  144 type  3   force =     3.99838975   -4.04060589   -0.53063593
     atom  145 type  4   force =     2.43704979   -0.35097792    1.39424709
     atom  146 type  4   force =    -0.88570098   -2.75786585    0.63428460
     atom  147 type  4   force =     1.43765118   -0.68542571   -2.67126066
     atom  148 type  1   force =    -0.64739156    2.80020102  -10.74517406
     atom  149 type  1   force =    -0.07705635    2.32601856   -7.24587573
     atom  150 type  1   force =    -6.06224697    5.74729179   -3.90515548
     atom  151 type  2   force =     4.25741496   -3.40490179    6.42309367
     atom  152 type  3   force =    -1.94678455   -2.73230966    4.56749781
     atom  153 type  4   force =    -1.57273726   -2.24519728    2.32736167
     atom  154 type  3   force =     0.04984263   -0.49356878    4.98634562
     atom  155 type  4   force =     0.18033757   -0.40775625    2.86341496
     atom  156 type  3   force =     2.02729442    1.76339071    4.38047201
     atom  157 type  4   force =     1.94406229    1.85460463    1.97754932
     atom  158 type  3   force =    -0.24731186   -0.60705852    1.52330491
     atom  159 type  3   force =    -0.68591089   -0.10367376   -3.02967661
     atom  160 type  4   force =    -0.51933023    0.28672238   -3.09581280
     atom  161 type  3   force =    -0.92025580   -1.28897666    0.55220667
     atom  162 type  3   force =     1.05185942    1.01529245   -1.17038571
     atom  163 type  4   force =    -0.08675536    0.78601005   -3.02389777
     atom  164 type  3   force =     0.68313368   -1.08876124    3.92684021
     atom  165 type  4   force =     0.53109964   -0.79962466    3.64329271
     atom  166 type  3   force =     1.10371101   -0.57059259    4.26897121
     atom  167 type  3   force =     0.84915633    0.97580251    0.98895133
     atom  168 type  3   force =    -1.07426070    0.19101899   -3.30471712
     atom  169 type  4   force =    -0.52344056    0.47836887   -3.00527394
     atom  170 type  3   force =    -2.12756410   -1.43823269   -2.73297649
     atom  171 type  4   force =    -1.77957276   -1.55993941   -2.10511079
     atom  172 type  3   force =     0.16166377   -0.32499106    1.72415900
     atom  173 type  3   force =     1.69739864   -0.27063171    6.06915261
     atom  174 type  4   force =     0.73624506   -0.58509830    3.46128478
     atom  175 type  3   force =     2.63901262    1.69255513    5.19670080
     atom  176 type  4   force =     2.03378311    1.52246131    2.75503347
     atom  177 type  3   force =    -2.81526061    0.36237870   -0.78865350
     atom  178 type  4   force =    -1.39567367    1.83266816   -1.90587944
     atom  179 type  3   force =     1.11253930    1.40352459    0.68214839
     atom  180 type  3   force =    -1.31943493    3.00904131   -1.80673828
     atom  181 type  4   force =    -1.24502973    2.08206899   -1.89224698
     atom  182 type  3   force =     0.04552844    0.39651673    1.03463647
     atom  183 type  3   force =    -1.25503817   -3.41670005    2.74170258
[...]
     atom  116 type  4   force =     0.00000012   -0.00000007   -0.00000005
     atom  117 type  3   force =     0.00000035   -0.00000041   -0.00000264
     atom  118 type  3   force =    -0.00000015   -0.00000017   -0.00000263
     atom  119 type  3   force =    -0.00000043    0.00000013   -0.00000328
     atom  120 type  4   force =    -0.00000001    0.00000004   -0.00000083
     atom  121 type  3   force =    -0.00000070    0.00000008   -0.00000258
     atom  122 type  4   force =    -0.00000015    0.00000004   -0.00000067
     atom  123 type  3   force =    -0.00000092   -0.00000015   -0.00000103
     atom  124 type  3   force =    -0.00000056    0.00000013    0.00000052
     atom  125 type  4   force =    -0.00000008    0.00000002    0.00000057
     atom  126 type  3   force =     0.00000003   -0.00000011   -0.00000017
     atom  127 type  4   force =     0.00000015   -0.00000011    0.00000027
     atom  128 type  3   force =    -0.00000168   -0.00000012   -0.00000050
     atom  129 type  4   force =    -0.00000040   -0.00000006   -0.00000031
     atom  130 type  3   force =    -0.00000107    0.00000007    0.00000041
     atom  131 type  3   force =    -0.00000086   -0.00000016   -0.00000030
     atom  132 type  4   force =    -0.00000019   -0.00000018   -0.00000027
     atom  133 type  3   force =    -0.00000031    0.00000019    0.00000024
     atom  134 type  3   force =    -0.00000032    0.00000013    0.00000095
     atom  135 type  4   force =    -0.00000004    0.00000004    0.00000026
     atom  136 type  3   force =    -0.00000067    0.00000018    0.00000184
     atom  137 type  4   force =    -0.00000018   -0.00000002    0.00000057
     atom  138 type  3   force =    -0.00000101    0.00000036    0.00000170
     atom  139 type  4   force =    -0.00000030    0.00000008    0.00000054
     atom  140 type  3   force =     0.00000144   -0.00000063   -0.00000099
     atom  141 type  4   force =     0.00000024    0.00000000   -0.00000029
     atom  142 type  4   force =     0.00000038   -0.00000003   -0.00000016
     atom  143 type  4   force =     0.00000028   -0.00000020   -0.00000015
     atom  144 type  3   force =     0.00000041    0.00000053   -0.00000036
     atom  145 type  4   force =     0.00000025    0.00000014   -0.00000013
     atom  146 type  4   force =     0.00000002    0.00000008   -0.00000015
     atom  147 type  4   force =     0.00000015    0.00000009    0.00000002
     atom  148 type  1   force =    -0.00000061   -0.00000058    0.00000462
     atom  149 type  1   force =    -0.00000167   -0.00000191    0.00000443
     atom  150 type  1   force =     0.00000029   -0.00000006    0.00000397
     atom  151 type  2   force =     0.00000169   -0.00000015    0.00000350
     atom  152 type  3   force =    -0.00000017    0.00000046    0.00000263
     atom  153 type  4   force =    -0.00000003    0.00000005    0.00000066
     atom  154 type  3   force =    -0.00000045    0.00000027    0.00000262
     atom  155 type  4   force =    -0.00000011    0.00000006    0.00000057
     atom  156 type  3   force =    -0.00000100   -0.00000014    0.00000247
     atom  157 type  4   force =    -0.00000033   -0.00000011    0.00000069
     atom  158 type  3   force =    -0.00000077   -0.00000034    0.00000288
     atom  159 type  3   force =    -0.00000002    0.00000048    0.00000348
     atom  160 type  4   force =     0.00000003    0.00000008    0.00000089
     atom  161 type  3   force =    -0.00000009    0.00000066    0.00000328
     atom  162 type  3   force =    -0.00000021    0.00000017    0.00000379
     atom  163 type  4   force =    -0.00000006    0.00000009    0.00000082
     atom  164 type  3   force =    -0.00000032   -0.00000030    0.00000359
     atom  165 type  4   force =    -0.00000010   -0.00000007    0.00000071
     atom  166 type  3   force =    -0.00000032   -0.00000047    0.00000365
     atom  167 type  3   force =     0.00000016   -0.00000011    0.00000374
     atom  168 type  3   force =     0.00000040    0.00000014    0.00000360
     atom  169 type  4   force =     0.00000000    0.00000003    0.00000068
     atom  170 type  3   force =     0.00000066    0.00000008    0.00000339
     atom  171 type  4   force =     0.00000014    0.00000001    0.00000073
     atom  172 type  3   force =     0.00000084   -0.00000020    0.00000328
     atom  173 type  3   force =     0.00000054    0.00000004    0.00000254
     atom  174 type  4   force =     0.00000009   -0.00000002    0.00000038
     atom  175 type  3   force =     0.00000004   -0.00000003    0.00000271
     atom  176 type  4   force =    -0.00000008   -0.00000004    0.00000056
     atom  177 type  3   force =     0.00000152   -0.00000020    0.00000293
     atom  178 type  4   force =     0.00000031   -0.00000002    0.00000072
     atom  179 type  3   force =     0.00000098   -0.00000001    0.00000245
     atom  180 type  3   force =     0.00000070   -0.00000017    0.00000273
     atom  181 type  4   force =     0.00000013   -0.00000011    0.00000069
     atom  182 type  3   force =     0.00000019    0.00000010    0.00000248
     atom  183 type  3   force =     0.00000022    0.00000005    0.00000225
     atom  184 type  4   force =     0.00000000   -0.00000000    0.00000057
     atom  185 type  3   force =     0.00000058    0.00000009    0.00000162
     atom  186 type  4   force =     0.00000016   -0.00000003    0.00000029
     atom  187 type  3   force =     0.00000093    0.00000031    0.00000165
     atom  188 type  4   force =     0.00000031    0.00000008    0.00000035
     atom  189 type  3   force =    -0.00000124   -0.00000051    0.00000264
     atom  190 type  4   force =    -0.00000017    0.00000004    0.00000054
     atom  191 type  4   force =    -0.00000035    0.00000002    0.00000077
     atom  192 type  4   force =    -0.00000020   -0.00000019    0.00000068
     atom  193 type  3   force =    -0.00000046    0.00000043    0.00000269
     atom  194 type  4   force =    -0.00000027    0.00000012    0.00000056
     atom  195 type  4   force =    -0.00000001    0.00000003    0.00000066
     atom  196 type  4   force =    -0.00000016    0.00000007    0.00000076

     Total force =     3.489574     Total SCF correction =     0.000027

     BFGS Geometry Optimization
     Energy error            =      0.0E+00 Ry
     Gradient error          =      3.3E-01 Ry/Bohr

     number of scf cycles    =   1
     number of bfgs steps    =   0

     energy             new  =   -1757.9114524396 Ry

     new trust radius        =       0.3496405519 bohr
     new conv_thr            =            1.0E-10 Ry


ATOMIC_POSITIONS (angstrom)
O            -4.5755866689        3.8365296087        9.3738674296
O             0.0434849923        4.3132223254       10.8473859110
O             3.8066279176        5.3111649478       12.0050997493
N            -7.2827893327        2.7322073059       12.8122719136
C            -1.7529970333        1.4612673271       12.9837586712
H            -2.3361510730        2.3226279667       13.6288345472
C            -0.9717000788        0.6977679506       13.5404754383
H            -0.7743045206        0.8299482773       14.7499250462
C            -0.3781381324        5.4424898878       12.9360023197
H             0.4035425239        4.6964895995       13.5067792488
C            -0.5161765182        5.2138785219       11.6453027441
C            -1.3809982084        0.4521166086       11.1532338651
H            -1.5752489197        0.3108041471        9.9502412086
C            -2.0554363503        1.4357260939       11.6978821552
C            -2.8750545412        2.2702876973       11.1075709063
H            -3.0888772890        2.0312147039        9.9197787450
C            -3.5817672209        3.3255911711       11.3365194679
H            -3.4007346962        3.6127483162       12.4979209527
C            -4.4211353738        4.1182671866       10.6667704309
C            -5.1496689026        5.2027499099       11.2028797805
C            -5.9757308735        0.3547230839       10.5389802118
H            -6.0672874716        0.0663271217        9.3435349662
C            -6.6297174433        1.2759751708       10.9792524883
H            -7.3563276485        1.9384401269       10.2326062110
C            -6.6467401805        1.6988542259       12.2367587881
C            -5.7936247996        0.9268604142       12.8979842557
H            -5.6795040352        1.2439113364       14.0780368774
C            -5.1517780499        5.6266323039       12.4473968073
H            -4.4169557217        4.9888082717       13.1991102595
C            -8.4668133136        3.0453411080       12.4858104716
H            -8.9565463312        2.2476568640       11.6498564861
C            -9.2804207463        4.0264505010       12.8415052628
C             5.8186392183        4.2984782260       12.3822811005
H             5.4128618273        3.4836667952       11.5517916077
C             4.9883567713        5.2620227679       12.6323407334
C             5.5033725304        0.4261628296       13.5406410273
H             4.8058700568        1.3703798367       13.8782601934
C            -9.6733824219        0.2531198874       14.0447584275
H            -9.2804174803        1.0539101862       14.8987576161
C            -8.9562342393        4.9569476026       13.7289423390
H            -7.8453900104        4.8169005084       14.2251507314
C             0.8874394134        3.4846750126       11.4324145201
H             1.3358606155        2.7463038162       10.6933689090
H             0.4367851975        2.8283874413       12.2403336426
H             1.7827672373        3.9680014743       11.9192085159
C             3.1448941891        0.8117165350       12.1637465448
H             2.2093836707        0.8516921090       11.5241855218
H             3.7207984577        1.7457360023       11.8716224046
H             2.7802952950        1.0127687168       13.2111158118
O            13.2329440889        1.0213296087        0.4065401004
O            -6.6654127223        1.4980223254       18.4938366890
O           -10.4285556576        2.4959649478       17.3361228507
N             0.6608615927        5.5474073059       16.5289506864
C            -4.8689307067        4.2764673271       16.3574639288
H            -4.2857766670        5.1378279667       15.7123880528
C            -5.6502276512        3.5129679506       15.8007471617
H            -5.8476232194        3.6451482773       14.5912975538
C            -6.2437896076        2.6272898878       16.4052202703
H            -7.0254702639        1.8812895995       15.8344433512
C            -6.1057512218        2.3986785219       17.6959198559
C            -5.2409295216        3.2673166086       18.1879887249
H            -5.0466788203        3.1260041471       19.3909813914
C            -4.5664913897        4.2509260939       17.6433404448
C            -3.7468731888        5.0854876973       18.2336516937
H            -3.5330504410        4.8464147039       19.4214438550
C            -3.0401605191        0.5103911711       18.0047031321
H            -3.2211930438        0.7975483162       16.8433016473
C            -2.2007923662        1.3030671866       18.6744521691
C            -1.4722588374        2.3875499099       18.1383428195
C            -0.6461968665        3.1699230839       18.8022423882
H            14.7246448916        2.8815271217        0.4368725638
C             0.0077897033        4.0911751708       18.3619701117
H             0.7343999185        4.7536401269       19.1086163890
C             0.0248124405        4.5140542259       17.1044638119
C            -0.8283029404        3.7420604142       16.4432383443
H            -0.9424236948        4.0591113364       15.2631857126
C            -1.4701496901        2.8114323039       16.8938257927
H            -2.2049720183        2.1736082717       16.1421123405
C             1.8448855736        0.2301411080       16.8554121284
H             2.3346185912        5.0628568640       17.6913661039
C             2.6584930063        1.2112505010       16.4997173372
C           -12.4405669583        1.4832782260       16.9589414995
H           -12.0347895673        0.6684667952       17.7894309823
C           -11.6102845113        2.4468227679       16.7088818666
C           -12.1253002704        3.2413628296       15.8005815727
H           -11.4277977868        4.1855798367       15.4629624066
C             3.0514546819        3.0683198874       15.2964641625
H             2.6584897403        3.8691101862       14.4424649839
C             2.3343064993        2.1417476026       15.6122802610
H             1.2234622704        2.0017005084       15.1160718586
C            -7.5093671434        0.6694750126       17.9088080799
H            -7.9577883555       -0.0688961838       18.6478536910
H            -7.0587129375        0.0131874413       17.1008889574
H            -8.4046949673        1.1528014743       17.4220140841
C            -9.7668219291        3.6269165350       17.1774760552
H            -8.8313114107        3.6668921090       17.8170370782
H           -10.3427261977        4.5609360023       17.4696001954
H            -9.4022230350        3.8279687168       16.1301067782
O             5.5933015089        1.7938703913       10.1869476304
O             0.9742298477        1.3171776746        8.7134291490
O            -2.7889130776        0.3192350522        7.5557153207
N             8.3005041727        2.8981926941        6.7485431464
C             2.7707118733        4.1691326729        6.5770563988
H             3.3538659130        3.3077720333        5.9319805228
C             1.9894149188        4.9326320494        6.0203396217
H             1.7920193606        4.8004517227        4.8108900238
C             1.3958529724        0.1879101122        6.6248127403
H             0.6141723161        0.9339104005        6.0540358112
C             1.5338913582        0.4165214781        7.9155123259
C             2.3987130484        5.1782833914        8.4075811949
H             2.5929637597        5.3195958529        9.6105738614
C             3.0731511903        4.1946739061        7.8629329148
C             3.8927693812        3.3601123027        8.4532441637
H             4.1065921390        3.5991852961        9.6410363250
C             4.5994820609        2.3048088289        8.2242956021
H             4.4184495362        2.0176516838        7.0628941073
C             5.4388502138        1.5121328134        8.8940446391
C             6.1673837426        0.4276500901        8.3579352895
C             6.9934457135        5.2756769161        9.0218348582
H             7.0850023116        5.5640728783       10.2172801038
C             7.6474322833        4.3544248292        8.5815625817
H             8.3740424885        3.6919598731        9.3282088590
C             7.6644550205        3.9315457741        7.3240562819
C             6.8113396396        4.7035395858        6.6628308143
H             6.6972188852        4.3864886636        5.4827781826
C             6.1694928899        0.0037676961        7.1134182527
H             5.4346705617        0.6415917283        6.3617048105
C             9.4845281536        2.5850588920        7.0750045884
H             9.9742611712        3.3827431360        7.9109585739
C            10.2981355863        1.6039494990        6.7193098072
C            -4.8009243783        1.3319217740        7.1785339695
H            -4.3951469873        2.1467332048        8.0090234523
C            -3.9706419313        0.3683772321        6.9284743266
C            -4.4856576904        5.2042371704        6.0201740327
H            -3.7881552068        4.2600201633        5.6825548766
C            10.6910972619        5.3772801126        5.5160566325
H            10.2981323203        4.5764898138        4.6620574539
C             9.9739490793        0.6734523974        5.8318727210
H             8.8631048504        0.8134994916        5.3356643286
C             0.1302754366        2.1457249874        8.1284005499
H            -0.3181457755        2.8840961838        8.8674461610
H             0.5809296425        2.8020125587        7.3204814274
H            -0.7650523873        1.6623985257        7.6416065541
C            -2.1271793491        4.8186834650        7.3970685252
H            -1.1916688307        4.7787078910        8.0366295382
H            -2.7030836177        3.8846639977        7.6891926654
H            -1.7625804550        4.6176312832        6.3496992482
O           -12.2152292489        4.6090703913       19.1542749596
O             7.6831275723        4.1323776746        1.0669783810
O            11.4462704976        3.1344350522        2.2246922093
N             0.3568532473        0.0829926941        3.0318643836
C             5.8866455467        1.3539326729        3.2033511412
H             5.3034915070        0.4925720333        3.8484270172
C             6.6679425012        2.1174320494        3.7600679083
H             6.8653380594        1.9852517227        4.9695175162
C             7.2615044476        3.0031101122        3.1555947897
H             8.0431851039        3.7491104005        3.7263717188
C             7.1234660618        3.2317214781        1.8648952141
C             6.2586443716        2.3630833914        1.3728263351
H             6.0643936603        2.5043958529        0.1698336686
C             5.5842062297        1.3794739061        1.9174746152
C             4.7645880388        0.5449123027        1.3271633763
H             4.5507652810        0.7839852961        0.1393712150
C             4.0578753591        5.1200088289        1.5561119379
H             4.2389078838        4.8328516838        2.7175134227
C             3.2185072062        4.3273328134        0.8863628909
C             2.4899736774        3.2428500901        1.4224722405
C             1.6639117065        2.4604769161        0.7585726718
H           -13.7069300516        2.7488728783       19.1239424962
C             1.0099251367        1.5392248292        1.1988449583
H             0.2833149315        0.8767598731        0.4521986710
C             0.9929023995        1.1163457741        2.4563512481
C             1.8460177804        1.8883395858        3.1175767257
H             1.9601385448        1.5712886636        4.2976293474
C             2.4878645301        2.8189676961        2.6669892773
H             3.2226868583        3.4567917283        3.4187027195
C            -0.8271707336        5.4002588920        2.7054029416
H            -1.3169037512        0.5675431360        1.8694489561
C            -1.6407781663        4.4191494990        3.0610977228
C            13.4582817983        4.1471217740        2.6018735705
H            13.0525044073        4.9619332048        1.7713840777
C            12.6279993513        3.1835772321        2.8519332034
C            13.1430151104        2.3890371704        3.7602334973
H            12.4455126368        1.4448201633        4.0978526634
C            -2.0337398419        2.5620801126        4.2643508975
H            -1.6407749003        1.7612898138        5.1183500761
C            -1.3165916593        3.4886523974        3.9485348090
H            -0.2057474304        3.6286994916        4.4447432014
C             8.5270819834        4.9609249874        1.6520069801
H             8.9755031955        5.6992961838        0.9129613790
H             8.0764277775        5.6172125587        2.4599261026
H             9.4224098073        4.4775985257        2.1388009859
C            10.7845367691        2.0034834650        2.3833390048
H             9.8490262507        1.9635078910        1.7437779918
H            11.3604410377        1.0694639977        2.0912148746
H            10.4199378750        1.8024312832        3.4307082818



     Writing config-only to output data dir ./outdir/4amp.save/
     NEW-OLD atomic charge density approx. for the potential

     total cpu time spent up to now is      190.6 secs
