
     Program PWSCF v.7.2 starts on  1Mar2024 at 10:36:21

     This program is part of the open-source Quantum ESPRESSO suite
     for quantum simulation of materials; please cite
         "P. Giannozzi et al., J. Phys.:Condens. Matter 21 395502 (2009);
         "P. Giannozzi et al., J. Phys.:Condens. Matter 29 465901 (2017);
         "P. Giannozzi et al., J. Chem. Phys. 152 154105 (2020);
          URL http://www.quantum-espresso.org",
     in publications or presentations arising from this work. More details at
     http://www.quantum-espresso.org/quote

     Parallel version (MPI), running on   120 processors

     MPI processes distributed on     1 nodes
     453825 MiB available memory on the printing compute node when the environment starts

     Reading input from 4amp33_scf.in

     Current dimensions of program PWSCF are:
     Max number of different atomic species (ntypx) = 10
     Max number of k-points (npk) =  40000
     Max angular momentum in pseudopotentials (lmaxx) =  4

     Reading input from environ.in:
     * using full solvent mode
     * setting boundary derivatives method to SCCS default

     file F.pbe-n-rrkjus_psl.1.0.0.UPF: wavefunction(s)  2S renormalized

     IMPORTANT: XC functional enforced from input :
     Exchange-correlation= PBE
                           (   1   4   3   4   0   0   0)
     Any further DFT definition will be discarded
     Please, verify this is what you really want


     gamma-point specific algorithms are used

     R & G space division:  proc/nbgrp/npool/nimage =     120
     Subspace diagonalization in iterative solution of the eigenvalue problem:
     one sub-group per band group will be used
     custom distributed-memory algorithm (size of sub-group:  2*  2 procs)


     Parallelization info
     --------------------
     sticks:   dense  smooth     PW     G-vecs:    dense   smooth      PW
     Min          80      31      7                13414     3382     404
     Max          82      34     10                13456     3410     436
     Sum        9729    3901    977              1612049   407897   50977

     Using Slab Decomposition



     bravais-lattice index     =           14
     lattice parameter (alat)  =      10.6624  a.u.
     unit-cell volume          =    6494.7431 (a.u.)^3
     number of atoms/cell      =           94
     number of atomic types    =            5
     number of electrons       =       328.00
     number of Kohn-Sham states=          174
     kinetic-energy cutoff     =      60.0000  Ry
     charge density cutoff     =     600.0000  Ry
     scf convergence threshold =      6.0E-06
     mixing beta               =       0.7000
     number of iterations used =            8  local-TF  mixing
     Exchange-correlation= PBE
                           (   1   4   3   4   0   0   0)

     ================================================================================

                                  Environ Setup Summary

     ================================================================================

     Please cite

          O. Andreussi, I. Dabo and N. Marzari, J. Chem. Phys. 136, 064102 (2012)

     in publications or presentations arising from this work.

     ================================================================================

     Parameters
     ==========

     compensation onset threshold      =               0.1000E+02
     static permittivity               =                    36.71
     surface tension in input (dyn/cm) =                    46.30
     surface tension in internal units =               0.5948E-04
     external pressure in input (GPa)  =                    -0.50
     external pressure in inter. units =              -0.3399E-04

     Solvent Boundary
     ================

     solvent mode                      =                     full
     derivatives method                =                    chain
     numerical core for derivatives    =                      fft
     switching function adopted        =                     SCCS
     density limit for vacuum region   =               0.5000E-02
     density limit for bulk solvent    =               0.1000E-03

     Electrostatic Setup
     ===================

     electrostatic problem to solve    =              generalized
     numerical solver adopted          =                       cg
     type of auxiliary density adopted =                     none
     numerical core for poisson        =                      fft

     ================================================================================


     celldm(1)=  10.662402  celldm(2)=   1.803608  celldm(3)=   3.100136
     celldm(4)=   0.245255  celldm(5)=   0.127686  celldm(6)=   0.110721

     crystal axes: (cart. coord. in units of alat)
               a(1) = (   1.000000   0.000000   0.000000 )
               a(2) = (   0.199697   1.792519   0.000000 )
               a(3) = (   0.395844   0.720928   2.989049 )

     reciprocal axes: (cart. coord. in units 2 pi/alat)
               b(1) = (  1.000000 -0.111406 -0.105561 )
               b(2) = (  0.000000  0.557874 -0.134554 )
               b(3) = (  0.000000  0.000000  0.334555 )


     PseudoPot. # 1 for O  read from file:
     /home/cyk/q-e-qe-7.2/pp/O.pbe-n-rrkjus_psl.1.0.0.UPF
     MD5 check sum: 91400c9766925bcf19f520983a725ff0
     Pseudo is Ultrasoft + core correction, Zval =  6.0
     Generated using &quot;atomic&quot; code by A. Dal Corso  v.6.3MaX
     Using radial grid of 1095 points,  4 beta functions with:
                l(1) =   0
                l(2) =   0
                l(3) =   1
                l(4) =   1
     Q(r) pseudized with 0 coefficients


     PseudoPot. # 2 for N  read from file:
     /home/cyk/q-e-qe-7.2/pp/N.pbe-n-rrkjus_psl.1.0.0.UPF
     MD5 check sum: ada94e3ed05223de5319d0572dc76806
     Pseudo is Ultrasoft + core correction, Zval =  5.0
     Generated using &quot;atomic&quot; code by A. Dal Corso  v.6.3MaX
     Using radial grid of 1085 points,  4 beta functions with:
                l(1) =   0
                l(2) =   0
                l(3) =   1
                l(4) =   1
     Q(r) pseudized with 0 coefficients


     PseudoPot. # 3 for C  read from file:
     /home/cyk/q-e-qe-7.2/pp/C.pbe-n-rrkjus_psl.1.0.0.UPF
     MD5 check sum: 1fdd950c42eb37d8afe3dd2f8d12311e
     Pseudo is Ultrasoft + core correction, Zval =  4.0
     Generated using &quot;atomic&quot; code by A. Dal Corso  v.6.3MaX
     Using radial grid of 1073 points,  4 beta functions with:
                l(1) =   0
                l(2) =   0
                l(3) =   1
                l(4) =   1
     Q(r) pseudized with 0 coefficients


     PseudoPot. # 4 for H  read from file:
     /home/cyk/q-e-qe-7.2/pp/H.pbe-rrkjus_psl.1.0.0.UPF
     MD5 check sum: 3f4114867bd07edc7f1424d066fc1888
     Pseudo is Ultrasoft, Zval =  1.0
     Generated using &quot;atomic&quot; code by A. Dal Corso  v.6.3MaX
     Using radial grid of  929 points,  2 beta functions with:
                l(1) =   0
                l(2) =   0
     Q(r) pseudized with 0 coefficients


     PseudoPot. # 5 for F  read from file:
     /home/cyk/q-e-qe-7.2/pp/F.pbe-n-rrkjus_psl.1.0.0.UPF
     MD5 check sum: 54b1cd0d2e22d705595f13732da1ccc9
     Pseudo is Ultrasoft + core correction, Zval =  7.0
     Generated using &quot;atomic&quot; code by A. Dal Corso  v.6.3MaX
     Using radial grid of 1105 points,  4 beta functions with:
                l(1) =   0
                l(2) =   0
                l(3) =   1
                l(4) =   1
     Q(r) pseudized with 0 coefficients


     atomic species   valence    mass     pseudopotential
        O              6.00    16.00000     O ( 1.00)
        N              5.00    14.00000     N ( 1.00)
        C              4.00    12.00000     C ( 1.00)
        H              1.00     1.00000     H ( 1.00)
        F              7.00    19.00000     F ( 1.00)

      2 Sym. Ops., with inversion, found



   Cartesian axes

     site n.     atom                  positions (alat units)
         1           O   tau(   1) = (   1.1765111   1.0185408   0.9861542  )
         2           O   tau(   2) = (   0.4190296   1.4949061   2.0028955  )
         3           N   tau(   3) = (   0.7744258   1.8485115   1.6224279  )
         4           N   tau(   4) = (   0.8211147   0.6649351   1.3666218  )
         5           C   tau(   5) = (   0.4785941   0.8400442   0.4077725  )
         6           C   tau(   6) = (   1.1169465   1.6734026   2.5812772  )
         7           H   tau(   7) = (   0.4162956   1.0026760   0.4907224  )
         8           H   tau(   8) = (   1.1792448   1.5107707   2.4983271  )
         9           C   tau(   9) = (   0.3431587   0.7401968   0.2283307  )
        10           C   tau(  10) = (   1.2523818   1.7732498   2.7607189  )
        11           H   tau(  11) = (   0.1810042   0.8267136   0.1707397  )
        12           H   tau(  12) = (   1.4145363   1.6867331   2.8183098  )
        13           C   tau(  13) = (   0.4207064   0.5316990   0.1171232  )
        14           C   tau(  14) = (   1.1748340   1.9817478   2.8719263  )
        15           C   tau(  15) = (   0.6306482   0.4221410   0.1877884  )
        16           C   tau(  16) = (   0.9648925   2.0913059   2.8012611  )
        17           H   tau(  17) = (   0.6886220   0.2585147   0.1038441  )
        18           H   tau(  18) = (   0.9069185   2.2549320   2.8852056  )
        19           C   tau(  19) = (   0.7649833   0.5232800   0.3681872  )
        20           C   tau(  20) = (   0.8305572   1.9901666   2.6208625  )
        21           H   tau(  21) = (   0.9274050   0.4376386   0.4267218  )
        22           H   tau(  22) = (   0.6681356   2.0758082   2.5623278  )
        23           C   tau(  23) = (   0.6931231   0.7354790   0.4784119  )
        24           C   tau(  24) = (   0.9024174   1.7779679   2.5106378  )
        25           C   tau(  25) = (   0.8483544   0.8368096   0.6567505  )
        26           C   tau(  26) = (   0.7471863   1.6766370   2.3322991  )
        27           H   tau(  27) = (   1.0124863   0.7405469   0.6930805  )
        28           H   tau(  28) = (   0.5830542   1.7728998   2.2959691  )
        29           C   tau(  29) = (   0.8096326   1.0383654   0.7796789  )
        30           C   tau(  30) = (   0.7859079   1.4750813   2.2093708  )
        31           H   tau(  31) = (   0.6485454   1.1402161   0.7532615  )
        32           H   tau(  32) = (   0.9469951   1.3732307   2.2357882  )
        33           C   tau(  33) = (   0.9810370   1.1172602   0.9595443  )
        34           C   tau(  34) = (   0.6145035   1.3961864   2.0295054  )
        35           C   tau(  35) = (   0.9117072   1.3126745   1.1214205  )
        36           C   tau(  36) = (   0.6838333   1.2007723   1.8676292  )
        37           C   tau(  37) = (   1.0628843   1.3545412   1.3152812  )
        38           C   tau(  38) = (   0.5326562   1.1589054   1.6737685  )
        39           H   tau(  39) = (   1.2181483   1.2424352   1.3336115  )
        40           H   tau(  40) = (   0.3773923   1.2710116   1.6554381  )
        41           C   tau(  41) = (   1.0100457   1.5277284   1.4794864  )
        42           C   tau(  42) = (   0.5854949   0.9857184   1.5095633  )
        43           H   tau(  43) = (   1.1242488   1.5580487   1.6322214  )
        44           H   tau(  44) = (   0.4712918   0.9553979   1.3568283  )
        45           C   tau(  45) = (   0.8061151   1.6680126   1.4544332  )
        46           C   tau(  46) = (   0.7894253   0.8454342   1.5346163  )
        47           C   tau(  47) = (   0.6536281   1.6288107   1.2608987  )
        48           C   tau(  48) = (   0.9419124   0.8846362   1.7281510  )
        49           H   tau(  49) = (   0.5003410   1.7431305   1.2334377  )
        50           H   tau(  50) = (   1.0951995   0.7703162   1.7556118  )
        51           C   tau(  51) = (   0.7062005   1.4504651   1.0976634  )
        52           C   tau(  52) = (   0.8893400   1.0629815   1.8913862  )
        53           H   tau(  53) = (   0.5843721   1.4212020   0.9512186  )
        54           H   tau(  54) = (   1.0111684   1.0922446   2.0378311  )
        55           C   tau(  55) = (   0.5656855   1.9019087   1.6959178  )
        56           C   tau(  56) = (   1.0298552   0.6115379   1.2931318  )
        57           H   tau(  57) = (   0.4041087   1.8086715   1.6358946  )
        58           H   tau(  58) = (   1.1914318   0.7047751   1.3531549  )
        59           C   tau(  59) = (   0.5276838   2.0813960   1.8778445  )
        60           C   tau(  60) = (   1.0678569   0.4320508   1.1112052  )
        61           C   tau(  61) = (   0.6931126   2.2634954   1.9159240  )
        62           C   tau(  62) = (   0.9024278   0.2499514   1.0731255  )
        63           H   tau(  63) = (   0.6480901   0.4823356   1.8023290  )
        64           H   tau(  64) = (   0.9474505   2.0311110   1.1867205  )
        65           C   tau(  65) = (   0.4524192   0.6395573   2.0908992  )
        66           C   tau(  66) = (   1.1431215   1.8738893   0.8981505  )
        67           H   tau(  67) = (   0.5780247   0.7837122   2.1166078  )
        68           H   tau(  68) = (   1.0175157   1.7297344   0.8724419  )
        69           C   tau(  69) = (   1.2489543   0.6221240   2.2310681  )
        70           C   tau(  70) = (   0.3465863   1.8913226   0.7579814  )
        71           C   tau(  71) = (   1.2849465   2.2310172   2.1980973  )
        72           C   tau(  72) = (   0.3105940   0.2824294   0.7909524  )
        73           H   tau(  73) = (   1.1307991   2.2143566   2.3124677  )
        74           H   tau(  74) = (   0.4647414   0.2990900   0.6765819  )
        75           C   tau(  75) = (   1.3237248   2.0666973   2.0185159  )
        76           C   tau(  76) = (   0.2718158   0.4467493   0.9705337  )
        77           H   tau(  77) = (   1.1977343   1.9237004   1.9896058  )
        78           H   tau(  78) = (   0.3978062   0.5897462   0.9994439  )
        79           C   tau(  79) = (   0.6816837   1.1505570   2.9010967  )
        80           C   tau(  80) = (   0.9138568   1.3628898   0.0879528  )
        81           C   tau(  81) = (   1.2070818   0.7966742   2.4265227  )
        82           C   tau(  82) = (   0.3884589   1.7167724   0.5625268  )
        83           F   tau(  83) = (   0.4566355   1.2365635   2.8848052  )
        84           F   tau(  84) = (   1.1389050   1.2768833   0.1042443  )
        85           F   tau(  85) = (   0.7888021   1.2035536   2.6898869  )
        86           F   tau(  86) = (   0.8067384   1.3098932   0.2991626  )
        87           F   tau(  87) = (   0.6665441   0.9098806   2.9125978  )
        88           F   tau(  88) = (   0.9289966   1.6035662   0.0764519  )
        89           F   tau(  89) = (   0.9723935   0.8231261   2.4729062  )
        90           F   tau(  90) = (   0.6231470   1.6903205   0.5161433  )
        91           F   tau(  91) = (   1.2954134   1.0168286   2.3740363  )
        92           F   tau(  92) = (   0.3001271   1.4966182   0.6150132  )
        93           F   tau(  93) = (   1.3115107   0.7283324   2.6343398  )
        94           F   tau(  94) = (   0.2840300   1.7851142   0.3547097  )

     --------------------------------------------
     DFT-D3 Dispersion Correction (3-body terms):
     --------------------------------------------
       Reference C6 values for interpolation:

         atom   Coordination number   C6
         H          0.912             6.05
         H          0.000            15.18
         C          0.000            98.23
         C          0.987            86.49
         C          1.998            58.72
         C          2.999            51.56
         C          3.984            36.41
         N          0.000            50.54
         N          0.994            44.25
         N          2.014            39.35
         N          2.990            31.16
         O          0.000            31.01
         O          0.993            25.63
         O          1.989            20.74
         F          0.000            19.38
         F          0.998            14.27

       Values used:

         atom   Coordination number  R0_AB[au]  C6      C8
         O          1.077            2.345     25.49    514.50
         O          1.077            2.345     25.49    514.50
         N          2.148            2.478     38.87    857.40
         N          2.148            2.478     38.87    857.40
         C          3.178            2.750     50.28   1454.24
         C          3.178            2.750     50.28   1454.24
         H          1.006            2.062      6.18     74.65
         H          1.006            2.062      6.18     74.65
         C          3.173            2.750     50.34   1455.78
         C          3.173            2.750     50.34   1455.78
         H          1.007            2.062      6.17     74.64
         H          1.007            2.062      6.17     74.64
         C          3.231            2.750     49.68   1436.84
         C          3.231            2.750     49.68   1436.84
         C          3.175            2.750     50.31   1455.17
         C          3.175            2.750     50.31   1455.17
         H          1.006            2.062      6.18     74.65
         H          1.006            2.062      6.18     74.65
         C          3.194            2.750     50.12   1449.67
         C          3.194            2.750     50.12   1449.67
         H          1.007            2.062      6.17     74.64
         H          1.007            2.062      6.17     74.64
         C          3.179            2.750     50.27   1454.03
         C          3.179            2.750     50.27   1454.03
         C          3.151            2.750     50.52   1461.20
         C          3.151            2.750     50.52   1461.20
         H          1.009            2.062      6.17     74.63
         H          1.009            2.062      6.17     74.63
         C          3.116            2.750     50.78   1468.66
         C          3.116            2.750     50.78   1468.66
         H          1.007            2.062      6.17     74.64
         H          1.007            2.062      6.17     74.64
         C          3.141            2.750     50.61   1463.63
         C          3.141            2.750     50.61   1463.63
         C          3.200            2.750     50.06   1447.70
         C          3.200            2.750     50.06   1447.70
         C          3.196            2.750     50.10   1449.09
         C          3.196            2.750     50.10   1449.09
         H          1.009            2.062      6.17     74.63
         H          1.009            2.062      6.17     74.63
         C          3.188            2.750     50.18   1451.41
         C          3.188            2.750     50.18   1451.41
         H          1.007            2.062      6.18     74.65
         H          1.007            2.062      6.18     74.65
         C          3.239            2.750     49.57   1433.79
         C          3.239            2.750     49.57   1433.79
         C          3.169            2.750     50.37   1456.69
         C          3.169            2.750     50.37   1456.69
         H          1.007            2.062      6.18     74.65
         H          1.007            2.062      6.18     74.65
         C          3.172            2.750     50.34   1455.94
         C          3.172            2.750     50.34   1455.94
         H          1.007            2.062      6.17     74.64
         H          1.007            2.062      6.17     74.64
         C          3.192            2.750     50.14   1450.23
         C          3.192            2.750     50.14   1450.23
         H          1.004            2.062      6.18     74.68
         H          1.004            2.062      6.18     74.68
         C          3.196            2.750     50.10   1449.04
         C          3.196            2.750     50.10   1449.04
         C          3.183            2.750     50.23   1452.75
         C          3.183            2.750     50.23   1452.75
         H          1.008            2.062      6.17     74.63
         H          1.008            2.062      6.17     74.63
         C          3.175            2.750     50.31   1455.15
         C          3.175            2.750     50.31   1455.15
         H          1.007            2.062      6.17     74.64
         H          1.007            2.062      6.17     74.64
         C          3.236            2.750     49.62   1434.97
         C          3.236            2.750     49.62   1434.97
         C          3.178            2.750     50.28   1454.27
         C          3.178            2.750     50.28   1454.27
         H          1.007            2.062      6.17     74.64
         H          1.007            2.062      6.17     74.64
         C          3.187            2.750     50.20   1451.84
         C          3.187            2.750     50.20   1451.84
         H          1.006            2.062      6.18     74.65
         H          1.006            2.062      6.18     74.65
         C          4.074            2.750     36.55   1057.00
         C          4.074            2.750     36.55   1057.00
         C          4.076            2.750     36.55   1056.95
         C          4.076            2.750     36.55   1056.95
         F          1.100            2.173     14.31    244.78
         F          1.100            2.173     14.31    244.78
         F          1.101            2.173     14.31    244.78
         F          1.101            2.173     14.31    244.78
         F          1.098            2.173     14.31    244.79
         F          1.098            2.173     14.31    244.79
         F          1.103            2.173     14.30    244.77
         F          1.103            2.173     14.30    244.77
         F          1.094            2.173     14.31    244.81
         F          1.094            2.173     14.31    244.81
         F          1.097            2.173     14.31    244.80
         F          1.097            2.173     14.31    244.80

         Molecular C6 ( Ry / a.u.^6 ) =    225860.36


     number of k points=     1
                       cart. coord. in units 2pi/alat
        k(    1) = (   0.0000000   0.0000000   0.0000000), wk =   2.0000000

     Dense  grid:   806025 G-vectors     FFT dimensions: (  90, 150, 270)

     Smooth grid:   203949 G-vectors     FFT dimensions: (  54,  96, 180)

     Estimated max dynamical RAM per process >      20.89 MB

     Estimated total dynamical RAM >       2.45 GB

     Check: negative core charge=   -0.000001

     Initial potential from superposition of free atoms

     starting charge     327.9977, renormalised to     328.0000
     Starting wfcs are  286 randomized atomic wfcs

     total cpu time spent up to now is        3.0 secs

     Self-consistent Calculation

     iteration #  1     ecut=    60.00 Ry     beta= 0.70
     CG style diagonalization
     ethr =  1.00E-02,  avg # of iterations =  3.0

     add environment contribution to local potential
     Polarization accuracy = 1.3E-27, # of iterations =  25

     total cpu time spent up to now is        4.9 secs

     total energy              =   -1321.55667227 Ry
     estimated scf accuracy    <       8.27055540 Ry
     electrostatic embedding   =       0.00000000 Ry
     cavitation energy         =       0.00568550 Ry
     PV energy                 =      -0.21944341 Ry
     correction to one-el term =      -0.00000000 Ry

     iteration #  2     ecut=    60.00 Ry     beta= 0.70
     CG style diagonalization
     ethr =  2.52E-03,  avg # of iterations =  3.2

     add environment contribution to local potential
     Polarization accuracy = 8.7E-28, # of iterations =  31

     total cpu time spent up to now is        6.2 secs

     total energy              =   -1320.59360724 Ry
     estimated scf accuracy    <       3.31859552 Ry
     electrostatic embedding   =      -0.00245379 Ry
     cavitation energy         =       0.00564685 Ry
     PV energy                 =      -0.21938803 Ry
     correction to one-el term =       0.05155742 Ry

     iteration #  3     ecut=    60.00 Ry     beta= 0.70
     CG style diagonalization
     ethr =  1.01E-03,  avg # of iterations =  4.2

     add environment contribution to local potential
     Polarization accuracy = 2.9E-27, # of iterations =  38

     total cpu time spent up to now is        7.9 secs

     total energy              =   -1321.51728079 Ry
     estimated scf accuracy    <       0.41500539 Ry
     electrostatic embedding   =      -0.01307683 Ry
     cavitation energy         =       0.01000420 Ry
     PV energy                 =      -0.21809291 Ry
     correction to one-el term =       0.18788404 Ry

     iteration #  4     ecut=    60.00 Ry     beta= 0.70
     CG style diagonalization
     ethr =  1.27E-04,  avg # of iterations =  5.7

     add environment contribution to local potential
     Polarization accuracy = 7.4E-27, # of iterations =  37

     total cpu time spent up to now is       10.1 secs

     total energy              =   -1322.47709522 Ry
     estimated scf accuracy    <       1.06079382 Ry
     electrostatic embedding   =      -0.01903542 Ry
     cavitation energy         =       0.01471651 Ry
     PV energy                 =      -0.21683659 Ry
     correction to one-el term =       0.26557382 Ry

     iteration #  5     ecut=    60.00 Ry     beta= 0.70
     CG style diagonalization
     ethr =  1.27E-04,  avg # of iterations =  3.5

     add environment contribution to local potential
     Polarization accuracy = 4.6E-27, # of iterations =  42

     total cpu time spent up to now is       11.5 secs

     total energy              =   -1322.08279465 Ry
     estimated scf accuracy    <       0.64833886 Ry
     electrostatic embedding   =      -0.01578863 Ry
     cavitation energy         =       0.01425570 Ry
     PV energy                 =      -0.21702226 Ry
     correction to one-el term =       0.23736860 Ry

     iteration #  6     ecut=    60.00 Ry     beta= 0.70
     CG style diagonalization
     ethr =  1.27E-04,  avg # of iterations =  4.6

     add environment contribution to local potential
     Polarization accuracy = 2.7E-27, # of iterations =  44

     total cpu time spent up to now is       13.3 secs

     total energy              =   -1322.35264968 Ry
     estimated scf accuracy    <       0.17909751 Ry
     electrostatic embedding   =      -0.01420493 Ry
     cavitation energy         =       0.01708831 Ry
     PV energy                 =      -0.21636727 Ry
     correction to one-el term =       0.20531361 Ry

     iteration #  7     ecut=    60.00 Ry     beta= 0.70
     CG style diagonalization
     ethr =  5.46E-05,  avg # of iterations =  4.5

     add environment contribution to local potential
     Polarization accuracy = 3.0E-27, # of iterations =  45

     total cpu time spent up to now is       15.1 secs

     total energy              =   -1322.50338183 Ry
     estimated scf accuracy    <       0.54861207 Ry
     electrostatic embedding   =      -0.01463861 Ry
     cavitation energy         =       0.01841443 Ry
     PV energy                 =      -0.21602350 Ry
     correction to one-el term =       0.20201192 Ry

     iteration #  8     ecut=    60.00 Ry     beta= 0.70
     CG style diagonalization
     ethr =  5.46E-05,  avg # of iterations =  3.1

     add environment contribution to local potential
     Polarization accuracy = 5.4E-27, # of iterations =  55

     total cpu time spent up to now is       16.5 secs

     total energy              =   -1322.26742990 Ry
     estimated scf accuracy    <       0.37379129 Ry
     electrostatic embedding   =      -0.01565626 Ry
     cavitation energy         =       0.01889409 Ry
     PV energy                 =      -0.21588710 Ry
     correction to one-el term =       0.21179428 Ry

     iteration #  9     ecut=    60.00 Ry     beta= 0.70
     CG style diagonalization
     ethr =  5.46E-05,  avg # of iterations =  4.1

     add environment contribution to local potential
     Polarization accuracy = 6.4E-27, # of iterations =  61

     total cpu time spent up to now is       18.2 secs

     total energy              =   -1322.41391830 Ry
     estimated scf accuracy    <       0.04087337 Ry
     electrostatic embedding   =      -0.02232172 Ry
     cavitation energy         =       0.02364860 Ry
     PV energy                 =      -0.21459110 Ry
     correction to one-el term =       0.25008894 Ry

     iteration # 10     ecut=    60.00 Ry     beta= 0.70
     CG style diagonalization
     ethr =  1.25E-05,  avg # of iterations =  6.5

     add environment contribution to local potential
     Polarization accuracy = 4.3E-27, # of iterations =  58

     total cpu time spent up to now is       20.8 secs

     total energy              =   -1322.42933421 Ry
     estimated scf accuracy    <       0.39996289 Ry
     electrostatic embedding   =      -0.02437781 Ry
     cavitation energy         =       0.02600538 Ry
     PV energy                 =      -0.21396339 Ry
     correction to one-el term =       0.23177890 Ry

     iteration # 11     ecut=    60.00 Ry     beta= 0.70
     CG style diagonalization
     ethr =  1.25E-05,  avg # of iterations =  4.3

     add environment contribution to local potential
     Polarization accuracy = 2.3E-27, # of iterations =  52

     total cpu time spent up to now is       22.6 secs

     total energy              =   -1322.36069569 Ry
     estimated scf accuracy    <       0.11541290 Ry
     electrostatic embedding   =      -0.02021348 Ry
     cavitation energy         =       0.02410832 Ry
     PV energy                 =      -0.21449034 Ry
     correction to one-el term =       0.19929172 Ry

     iteration # 12     ecut=    60.00 Ry     beta= 0.70
     CG style diagonalization
     ethr =  1.25E-05,  avg # of iterations =  6.2

     add environment contribution to local potential
     Polarization accuracy = 3.4E-27, # of iterations =  52

     total cpu time spent up to now is       25.0 secs

     total energy              =   -1322.53071056 Ry
     estimated scf accuracy    <       0.23479765 Ry
     electrostatic embedding   =      -0.01544817 Ry
     cavitation energy         =       0.02156065 Ry
     PV energy                 =      -0.21518528 Ry
     correction to one-el term =       0.14222921 Ry

     iteration # 13     ecut=    60.00 Ry     beta= 0.70
     CG style diagonalization
     ethr =  1.25E-05,  avg # of iterations =  3.7

     add environment contribution to local potential
     Polarization accuracy = 3.4E-27, # of iterations =  53

     total cpu time spent up to now is       26.5 secs

     total energy              =   -1322.49925117 Ry
     estimated scf accuracy    <       0.30069973 Ry
     electrostatic embedding   =      -0.01574108 Ry
     cavitation energy         =       0.02162941 Ry
     PV energy                 =      -0.21516288 Ry
     correction to one-el term =       0.13143518 Ry

     iteration # 14     ecut=    60.00 Ry     beta= 0.70
     CG style diagonalization
     ethr =  1.25E-05,  avg # of iterations =  3.1

     add environment contribution to local potential
     Polarization accuracy = 5.4E-27, # of iterations =  58

     total cpu time spent up to now is       27.9 secs

     total energy              =   -1322.37105049 Ry
     estimated scf accuracy    <       0.21547777 Ry
     electrostatic embedding   =      -0.01649296 Ry
     cavitation energy         =       0.02194564 Ry
     PV energy                 =      -0.21506676 Ry
     correction to one-el term =       0.12638975 Ry

     iteration # 15     ecut=    60.00 Ry     beta= 0.70
     CG style diagonalization
     ethr =  1.25E-05,  avg # of iterations =  4.1

     add environment contribution to local potential
     Polarization accuracy = 2.4E-27, # of iterations =  58

     total cpu time spent up to now is       29.6 secs

     total energy              =   -1322.42426818 Ry
     estimated scf accuracy    <       0.00174943 Ry
     electrostatic embedding   =      -0.01968681 Ry
     cavitation energy         =       0.02359049 Ry
     PV energy                 =      -0.21459587 Ry
     correction to one-el term =       0.12873783 Ry

     iteration # 16     ecut=    60.00 Ry     beta= 0.70
     CG style diagonalization
     ethr =  5.33E-07,  avg # of iterations =  7.9

     add environment contribution to local potential
     Polarization accuracy = 5.0E-27, # of iterations =  55

     total cpu time spent up to now is       32.6 secs

     total energy              =   -1322.46140904 Ry
     estimated scf accuracy    <       0.06287386 Ry
     electrostatic embedding   =      -0.01936022 Ry
     cavitation energy         =       0.02327917 Ry
     PV energy                 =      -0.21467531 Ry
     correction to one-el term =       0.12880986 Ry

     iteration # 17     ecut=    60.00 Ry     beta= 0.70
     CG style diagonalization
     ethr =  5.33E-07,  avg # of iterations =  4.4

     add environment contribution to local potential
     Polarization accuracy = 4.1E-27, # of iterations =  54

     total cpu time spent up to now is       34.4 secs

     total energy              =   -1322.45447926 Ry
     estimated scf accuracy    <       0.03215560 Ry
     electrostatic embedding   =      -0.01846209 Ry
     cavitation energy         =       0.02292090 Ry
     PV energy                 =      -0.21477676 Ry
     correction to one-el term =       0.12793190 Ry

     iteration # 18     ecut=    60.00 Ry     beta= 0.70
     CG style diagonalization
     ethr =  5.33E-07,  avg # of iterations =  4.8

     add environment contribution to local potential
     Polarization accuracy = 5.9E-27, # of iterations =  53

     total cpu time spent up to now is       36.4 secs

     total energy              =   -1322.44814502 Ry
     estimated scf accuracy    <       0.01083069 Ry
     electrostatic embedding   =      -0.01784463 Ry
     cavitation energy         =       0.02252574 Ry
     PV energy                 =      -0.21488274 Ry
     correction to one-el term =       0.12927706 Ry

     iteration # 19     ecut=    60.00 Ry     beta= 0.70
     CG style diagonalization
     ethr =  5.33E-07,  avg # of iterations =  6.0

     add environment contribution to local potential
     Polarization accuracy = 6.9E-27, # of iterations =  53

     total cpu time spent up to now is       38.7 secs

     total energy              =   -1322.46061957 Ry
     estimated scf accuracy    <       0.01216630 Ry
     electrostatic embedding   =      -0.01669139 Ry
     cavitation energy         =       0.02188943 Ry
     PV energy                 =      -0.21506155 Ry
     correction to one-el term =       0.12985792 Ry

     iteration # 20     ecut=    60.00 Ry     beta= 0.70
     CG style diagonalization
     ethr =  5.33E-07,  avg # of iterations =  4.5

     add environment contribution to local potential
     Polarization accuracy = 5.6E-27, # of iterations =  54

     total cpu time spent up to now is       40.6 secs

     total energy              =   -1322.45207752 Ry
     estimated scf accuracy    <       0.00984086 Ry
     electrostatic embedding   =      -0.01693832 Ry
     cavitation energy         =       0.02199294 Ry
     PV energy                 =      -0.21503966 Ry
     correction to one-el term =       0.12617945 Ry

     iteration # 21     ecut=    60.00 Ry     beta= 0.70
     CG style diagonalization
     ethr =  5.33E-07,  avg # of iterations =  4.2

     add environment contribution to local potential
     Polarization accuracy = 3.2E-27, # of iterations =  54

     total cpu time spent up to now is       42.4 secs

     total energy              =   -1322.45376005 Ry
     estimated scf accuracy    <       0.00103053 Ry
     electrostatic embedding   =      -0.01750890 Ry
     cavitation energy         =       0.02228507 Ry
     PV energy                 =      -0.21495753 Ry
     correction to one-el term =       0.12738280 Ry

     iteration # 22     ecut=    60.00 Ry     beta= 0.70
     CG style diagonalization
     ethr =  3.14E-07,  avg # of iterations =  4.6

     add environment contribution to local potential
     Polarization accuracy = 7.8E-27, # of iterations =  53

     total cpu time spent up to now is       44.2 secs

     total energy              =   -1322.45468212 Ry
     estimated scf accuracy    <       0.00019968 Ry
     electrostatic embedding   =      -0.01754053 Ry
     cavitation energy         =       0.02227137 Ry
     PV energy                 =      -0.21495886 Ry
     correction to one-el term =       0.12706631 Ry

     iteration # 23     ecut=    60.00 Ry     beta= 0.70
     CG style diagonalization
     ethr =  6.09E-08,  avg # of iterations =  5.2

     add environment contribution to local potential
     Polarization accuracy = 2.0E-27, # of iterations =  52

     total cpu time spent up to now is       46.3 secs

     total energy              =   -1322.45512491 Ry
     estimated scf accuracy    <       0.00029947 Ry
     electrostatic embedding   =      -0.01735116 Ry
     cavitation energy         =       0.02218176 Ry
     PV energy                 =      -0.21498505 Ry
     correction to one-el term =       0.12786162 Ry

     iteration # 24     ecut=    60.00 Ry     beta= 0.70
     CG style diagonalization
     ethr =  6.09E-08,  avg # of iterations =  4.8

     add environment contribution to local potential
     Polarization accuracy = 3.1E-27, # of iterations =  54

     total cpu time spent up to now is       48.2 secs

     total energy              =   -1322.45475326 Ry
     estimated scf accuracy    <       0.00147337 Ry
     electrostatic embedding   =      -0.01723604 Ry
     cavitation energy         =       0.02213662 Ry
     PV energy                 =      -0.21499606 Ry
     correction to one-el term =       0.12805849 Ry

     iteration # 25     ecut=    60.00 Ry     beta= 0.70
     CG style diagonalization
     ethr =  6.09E-08,  avg # of iterations =  4.4

     add environment contribution to local potential
     Polarization accuracy = 4.1E-27, # of iterations =  54

     total cpu time spent up to now is       50.1 secs

     total energy              =   -1322.45470385 Ry
     estimated scf accuracy    <       0.00051893 Ry
     electrostatic embedding   =      -0.01742394 Ry
     cavitation energy         =       0.02227294 Ry
     PV energy                 =      -0.21495858 Ry
     correction to one-el term =       0.13008495 Ry

     iteration # 26     ecut=    60.00 Ry     beta= 0.70
     CG style diagonalization
     ethr =  6.09E-08,  avg # of iterations =  4.3

     add environment contribution to local potential
     Polarization accuracy = 9.8E-27, # of iterations =  53

     total cpu time spent up to now is       51.8 secs

     total energy              =   -1322.45466399 Ry
     estimated scf accuracy    <       0.00002275 Ry
     electrostatic embedding   =      -0.01755836 Ry
     cavitation energy         =       0.02235527 Ry
     PV energy                 =      -0.21493533 Ry
     correction to one-el term =       0.12963094 Ry

     iteration # 27     ecut=    60.00 Ry     beta= 0.70
     CG style diagonalization
     ethr =  6.94E-09,  avg # of iterations =  6.1

     add environment contribution to local potential
     Polarization accuracy = 7.7E-27, # of iterations =  53

     total cpu time spent up to now is       54.2 secs

     total energy              =   -1322.45486860 Ry
     estimated scf accuracy    <       0.00004652 Ry
     electrostatic embedding   =      -0.01757073 Ry
     cavitation energy         =       0.02237283 Ry
     PV energy                 =      -0.21493101 Ry
     correction to one-el term =       0.12897175 Ry

     iteration # 28     ecut=    60.00 Ry     beta= 0.70
     CG style diagonalization
     ethr =  6.94E-09,  avg # of iterations =  4.6

     add environment contribution to local potential
     Polarization accuracy = 9.7E-27, # of iterations =  53

     total cpu time spent up to now is       56.1 secs

     total energy              =   -1322.45567829 Ry
     estimated scf accuracy    <       0.00004674 Ry
     electrostatic embedding   =      -0.01755596 Ry
     cavitation energy         =       0.02237857 Ry
     PV energy                 =      -0.21492860 Ry
     correction to one-el term =       0.13185688 Ry

     iteration # 29     ecut=    60.00 Ry     beta= 0.70
     CG style diagonalization
     ethr =  6.94E-09,  avg # of iterations =  4.3

     add environment contribution to local potential
     Polarization accuracy = 8.7E-27, # of iterations =  53

     total cpu time spent up to now is       57.9 secs

     total energy              =   -1322.45502203 Ry
     estimated scf accuracy    <       0.00003454 Ry
     electrostatic embedding   =      -0.01755949 Ry
     cavitation energy         =       0.02237875 Ry
     PV energy                 =      -0.21492874 Ry
     correction to one-el term =       0.13092450 Ry

     iteration # 30     ecut=    60.00 Ry     beta= 0.70
     CG style diagonalization
     ethr =  6.94E-09,  avg # of iterations =  4.0

     add environment contribution to local potential
     Polarization accuracy = 8.3E-27, # of iterations =  53

     total cpu time spent up to now is       59.5 secs

     total energy              =   -1322.45503517 Ry
     estimated scf accuracy    <       0.00001615 Ry
     electrostatic embedding   =      -0.01753707 Ry
     cavitation energy         =       0.02236151 Ry
     PV energy                 =      -0.21493377 Ry
     correction to one-el term =       0.12999459 Ry

     iteration # 31     ecut=    60.00 Ry     beta= 0.70
     CG style diagonalization
     ethr =  4.92E-09,  avg # of iterations =  5.2

     add environment contribution to local potential
     Polarization accuracy = 8.4E-27, # of iterations =  53

     total cpu time spent up to now is       61.6 secs

     total energy              =   -1322.45537326 Ry
     estimated scf accuracy    <       0.00001291 Ry
     electrostatic embedding   =      -0.01750536 Ry
     cavitation energy         =       0.02234437 Ry
     PV energy                 =      -0.21493862 Ry
     correction to one-el term =       0.13014275 Ry

     iteration # 32     ecut=    60.00 Ry     beta= 0.70
     CG style diagonalization
     ethr =  3.94E-09,  avg # of iterations =  4.9

     add environment contribution to local potential
     Polarization accuracy = 3.4E-27, # of iterations =  54

     total cpu time spent up to now is       63.6 secs

     total energy              =   -1322.45485820 Ry
     estimated scf accuracy    <       0.00002187 Ry
     electrostatic embedding   =      -0.01750079 Ry
     cavitation energy         =       0.02234028 Ry
     PV energy                 =      -0.21493997 Ry
     correction to one-el term =       0.12844872 Ry

     iteration # 33     ecut=    60.00 Ry     beta= 0.70
     CG style diagonalization
     ethr =  3.94E-09,  avg # of iterations =  4.3

     add environment contribution to local potential
     Polarization accuracy = 5.3E-27, # of iterations =  53

     total cpu time spent up to now is       65.3 secs

     total energy              =   -1322.45474175 Ry
     estimated scf accuracy    <       0.00001505 Ry
     electrostatic embedding   =      -0.01751809 Ry
     cavitation energy         =       0.02235115 Ry
     PV energy                 =      -0.21493683 Ry
     correction to one-el term =       0.12850758 Ry

     iteration # 34     ecut=    60.00 Ry     beta= 0.70
     CG style diagonalization
     ethr =  3.94E-09,  avg # of iterations =  4.2

     the potential shift due to the Gaussian-smeared nuclei is    -1.0793 ev

     total cpu time spent up to now is       66.8 secs

     End of self-consistent calculation

          k = 0.0000 0.0000 0.0000 ( 25489 PWs)   bands (ev):

   -26.0813 -26.0757 -25.9473 -25.9451 -23.9009 -23.9008 -23.8084 -23.7811
   -23.7703 -23.7564 -23.6176 -23.6132 -18.9157 -18.9144 -16.9571 -16.9326
   -15.2765 -15.2488 -15.1696 -15.1658 -14.7257 -14.5831 -13.5703 -13.5489
   -13.2430 -13.2009 -12.4694 -12.4482 -12.2005 -12.1950 -12.0894 -12.0890
   -12.0003 -11.9740 -11.9674 -11.9142 -11.0529 -10.9979 -10.6312 -10.6021
    -9.8617  -9.8076  -9.2734  -9.2284  -8.9349  -8.8984  -8.8216  -8.7973
    -8.6239  -8.6031  -8.4913  -8.4780  -7.9452  -7.9029  -7.7494  -7.6709
    -7.6286  -7.6130  -7.5545  -7.5531  -7.4856  -7.4410  -7.4162  -7.2949
    -7.2937  -7.2026  -7.1863  -7.1009  -6.6971  -6.6290  -6.2472  -6.1928
    -5.8014  -5.7731  -5.5211  -5.5140  -5.0975  -5.0603  -4.8457  -4.7728
    -4.7226  -4.6687  -4.6009  -4.5783  -4.5319  -4.4395  -4.4107  -4.3905
    -4.3776  -4.3314  -4.2770  -4.2757  -4.2727  -4.2223  -4.1915  -4.1514
    -4.1163  -4.0170  -3.9944  -3.9684  -3.8867  -3.8331  -3.7148  -3.6507
    -3.6225  -3.5434  -3.4622  -3.4022  -3.3542  -3.3281  -3.3264  -3.2582
    -3.2295  -3.2103  -3.1771  -3.1407  -3.1236  -3.1214  -3.0326  -3.0257
    -2.9031  -2.8811  -2.8135  -2.8110  -2.7696  -2.6748  -2.6227  -2.5928
    -2.5643  -2.5082  -2.3934  -2.3540  -2.2972  -2.2799  -2.0946  -2.0172
    -2.0055  -1.8861  -1.8618  -1.7939  -1.7899  -1.6174  -1.5978  -1.5464
    -1.4475  -1.2583  -1.0522  -1.0093  -0.6860  -0.3657  -0.3385  -0.1928
    -0.1038  -0.0183   0.0166   0.0782   0.2227   0.3191   0.6394   0.6433
     0.8821   0.9127   0.9868   1.0309   3.2095   3.4133   4.0108   4.0277
     4.8730   4.8900   4.9465   4.9895   5.2493   5.4301

     highest occupied, lowest unoccupied level (ev):     1.0309    3.2095

!    total energy              =   -1322.45471676 Ry
     estimated scf accuracy    <       0.00000334 Ry

     The total energy is the sum of the following terms:
     one-electron contribution =   -1028.60252639 Ry
     hartree contribution      =     641.60929836 Ry
     xc contribution           =    -383.84224328 Ry
     ewald contribution        =    -551.04068829 Ry
     DFT-D3 Dispersion         =      -0.49705974 Ry
     electrostatic embedding   =      -0.01753862 Ry
     cavitation energy         =       0.02236492 Ry
     PV energy                 =      -0.21493298 Ry
     correction to one-el term =       0.12860926 Ry

     convergence has been achieved in  34 iterations

     Writing all to output data dir ./outdir/4amp33.save/

     init_run     :      2.60s CPU      2.72s WALL (       1 calls)
     electrons    :     61.34s CPU     63.86s WALL (       1 calls)

     Called by init_run:
     wfcinit      :      0.20s CPU      0.21s WALL (       1 calls)
     potinit      :      0.97s CPU      0.98s WALL (       1 calls)
     hinit0       :      1.18s CPU      1.20s WALL (       1 calls)

     Called by electrons:
     c_bands      :     45.11s CPU     47.07s WALL (      34 calls)
     sum_band     :      2.37s CPU      2.58s WALL (      34 calls)
     v_of_rho     :      0.86s CPU      0.87s WALL (      35 calls)
     newd         :      1.22s CPU      1.22s WALL (      35 calls)
     mix_rho      :      0.75s CPU      0.76s WALL (      34 calls)
     energy_dftd3 :      0.53s CPU      0.54s WALL (       1 calls)

     Called by c_bands:
     init_us_2    :      0.05s CPU      0.06s WALL (      69 calls)
     init_us_2:cp :      0.05s CPU      0.06s WALL (      69 calls)
     rcgdiagg     :     41.84s CPU     43.45s WALL (      34 calls)
     wfcrot       :      3.40s CPU      3.70s WALL (      34 calls)

     Called by *cgdiagg:
     h_psi        :     25.35s CPU     26.46s WALL (   21526 calls)
     s_psi        :      8.49s CPU      8.82s WALL (   43018 calls)

     Called by h_psi:
     h_psi:calbec :      6.41s CPU      6.78s WALL (   21526 calls)
     vloc_psi     :     15.45s CPU     16.05s WALL (   21526 calls)
     add_vuspsi   :      3.33s CPU      3.46s WALL (   21526 calls)
     hs_1psi      :     27.10s CPU     28.15s WALL (   21492 calls)
     s_1psi       :      9.61s CPU      9.98s WALL (   21492 calls)

     General routines
     calbec       :     11.99s CPU     12.72s WALL (   43052 calls)
     fft          :      0.87s CPU      0.89s WALL (     383 calls)
     ffts         :      0.86s CPU      0.87s WALL (    1280 calls)
     fftw         :     14.81s CPU     15.40s WALL (   51970 calls)
     interpolate  :      0.44s CPU      0.44s WALL (      35 calls)

     Parallel routines

     Environ routines

     PWSCF        :   1m 4.36s CPU   1m 7.20s WALL


   This run was terminated on:  10:37:28   1Mar2024

=------------------------------------------------------------------------------=
   JOB DONE.
=------------------------------------------------------------------------------=
