 DBCSR| CPU Multiplication driver                                           XSMM (U)
 DBCSR| Multrec recursion limit                                              512 (U)
 DBCSR| Multiplication stack size                                           1000 (D)
 DBCSR| Maximum elements for images                                    UNLIMITED (U)
 DBCSR| Multiplicative factor virtual images                                   1 (U)
 DBCSR| Use multiplication densification                                       T (D)
 DBCSR| Multiplication size stacks                                             3 (U)
 DBCSR| Use memory pool for CPU allocation                                     F (U)
 DBCSR| Number of 3D layers                                               SINGLE (U)
 DBCSR| Use MPI memory allocation                                              F (U)
 DBCSR| Use RMA algorithm                                                      F (U)
 DBCSR| Use Communication thread                                               T (U)
 DBCSR| Communication thread load                                             83 (D)
 DBCSR| MPI: My process id                                                     0
 DBCSR| MPI: Number of processes                                              88
 DBCSR| OMP: Current number of threads                                         2
 DBCSR| OMP: Max number of threads                                             2
 DBCSR| Split modifier for TAS multiplication algorithm                  1.0E+00 (U)


  **** **** ******  **  PROGRAM STARTED AT               2024-01-16 11:21:35.707
 ***** ** ***  *** **   PROGRAM STARTED ON                          fe1b9c99996b
 **    ****   ******    PROGRAM STARTED BY                             <unknown>
 ***** **    ** ** **   PROGRAM PROCESS ID                                   538
  **** **  *******  **  PROGRAM STARTED IN                                  /mnt

 CP2K| version string:                                       CP2K version 2023.2
 CP2K| source code revision number:                                  git:65cca6c
 CP2K| cp2kflags: omp libint fftw3 libxc pexsi elpa parallel scalapack cosma qui
 CP2K|            p xsmm plumed2 spglib sirius libvori libbqb libtorch libvdwxc
 CP2K| is freely available from                            https://www.cp2k.org/
 CP2K| Program compiled at                          Wed Oct 18 11:40:41 UTC 2023
 CP2K| Program compiled on                                          633bb7bf566f
 CP2K| Program compiled for                                                local
 CP2K| Data directory path                                        /opt/cp2k/data
 CP2K| Input file name                                            iso4amp15_pbe0

 GLOBAL| Force Environment number                                              1
 GLOBAL| Basis set file name                                     EMSL_BASIS_SETS
 GLOBAL| Potential file name                                           POTENTIAL
 GLOBAL| MM Potential file name                                     MM_POTENTIAL
 GLOBAL| Coordinate file name                                      __STD_INPUT__
 GLOBAL| Method name                                                        CP2K
 GLOBAL| Project name                                             iso4amp15_pbe0
 GLOBAL| Run type                                                         ENERGY
 GLOBAL| FFT library                                                       FFTW3
 GLOBAL| Diagonalization library                                       ScaLAPACK
 GLOBAL| DGEMM library                                                      BLAS
 GLOBAL| Orthonormality check for eigenvectors                          DISABLED
 GLOBAL| Matrix multiplication library                                     COSMA
 GLOBAL| All-to-all communication in single precision                          F
 GLOBAL| FFTs using library dependent lengths                                  F
 GLOBAL| Grid backend                                                       AUTO
 GLOBAL| Global print level                                                  LOW
 GLOBAL| MPI I/O enabled                                                       T
 GLOBAL| Total number of message passing processes                            88
 GLOBAL| Number of threads for this process                                    2
 GLOBAL| This output is from process                                           0
 GLOBAL| Stack size for threads created by OpenMP (OMP_STACKSIZE)            16M
 GLOBAL| CPU model name                         AMD EPYC 9V33X 96-Core Processor
 GLOBAL| CPUID                                                              1003
 GLOBAL| Compiled for CPUID                                                    0

 *** HINT in environment.F:904 :: The compiler target flags (generic) used ***
 *** to build this binary cannot exploit all extensions of this CPU model  ***
 *** (x86_avx512). Consider compiler target flags as part of FCFLAGS and   ***
 *** CFLAGS (ARCH file).                                                   ***


 MEMORY| system memory details [Kb]
 MEMORY|                        rank 0           min           max       average
 MEMORY| MemTotal           1444892876    1444892876    1444892876    1444892876
 MEMORY| MemFree            1425471052    1425471052    1425471524    1425471282
 MEMORY| Buffers                 33676         33676         33676         33676
 MEMORY| Cached                 859848        859848        859848        859848
 MEMORY| Slab                  1070104       1070104       1070104       1070104
 MEMORY| SReclaimable           123056        123056        123056        123056
 MEMORY| MemLikelyFree      1426487632    1426487632    1426488104    1426487862


 GENERATE|  Preliminary Number of Bonds generated:                             0
 GENERATE|  Achieved consistency in connectivity generation.

 *******************************************************************************
 *******************************************************************************
 **                                                                           **
 **     #####                         ##              ##                      **
 **    ##   ##            ##          ##              ##                      **
 **   ##     ##                       ##            ######                    **
 **   ##     ##  ##   ##  ##   #####  ##  ##   ####   ##    #####    #####    **
 **   ##     ##  ##   ##  ##  ##      ## ##   ##      ##   ##   ##  ##   ##   **
 **   ##  ## ##  ##   ##  ##  ##      ####     ###    ##   ######   ######    **
 **    ##  ###   ##   ##  ##  ##      ## ##      ##   ##   ##       ##        **
 **     #######   #####   ##   #####  ##  ##  ####    ##    #####   ##        **
 **           ##                                                    ##        **
 **                                                                           **
 **                                                ... make the atoms dance   **
 **                                                                           **
 **            Copyright (C) by CP2K developers group (2000-2023)             **
 **                      J. Chem. Phys. 152, 194103 (2020)                    **
 **                                                                           **
 *******************************************************************************


 TOTAL NUMBERS AND MAXIMUM NUMBERS

  Total number of            - Atomic kinds:                                   4
                             - Atoms:                                         49
                             - Shell sets:                                   392
                             - Shells:                                       392
                             - Primitive Cartesian functions:                686
                             - Cartesian basis functions:                   1134
                             - Spherical basis functions:                    994

  Maximum angular momentum of the orbital basis functions:                     3


 SCF PARAMETERS         Density guess:                                    ATOMIC
                        --------------------------------------------------------
                        max_scf:                                             120
                        max_scf_history:                                       0
                        max_diis:                                              4
                        --------------------------------------------------------
                        eps_scf:                                        1.00E-05
                        eps_scf_history:                                0.00E+00
                        eps_diis:                                       1.00E-01
                        eps_eigval:                                     1.00E-05
                        --------------------------------------------------------
                        level_shift [a.u.]:                             0.000000
                        --------------------------------------------------------
                        Outer loop SCF in use
                        No variables optimised in outer loop
                        eps_scf                                         1.00E-05
                        max_scf                                               20
                        No outer loop optimization
                        step_size                                       5.00E-01

 Number of electrons:                                                        196
 Number of occupied orbitals:                                                 98
 Number of molecular orbitals:                                                98

 Number of orbital functions:                                                994
 Number of independent orbital functions:                                    994

 Extrapolation method: initial_guess


 SCF WAVEFUNCTION OPTIMIZATION

  ----------------------------------- OT ---------------------------------------
  Minimizer      : CG                  : conjugate gradient
  Preconditioner : FULL_ALL            : diagonalization, state selective
  Precond_solver : DEFAULT
  Line search    : 3PNT                : 3 energies
  stepsize       :    0.15000000                  energy_gap     :    0.00100000
  eps_taylor     :   0.10000E-15                  max_taylor     :             4
  ----------------------------------- OT ---------------------------------------

  Step     Update method      Time    Convergence         Total energy    Change
  ------------------------------------------------------------------------------
     1 OT CG       0.12E+00   25.2     0.07727880     -1144.7661294904 -1.14E+03
     2 OT LS       0.17E+00   17.5                    -1191.2533774108
     3 OT LS       0.16E+00   17.3                    -1194.3567650720
     4 OT CG       0.13E+00   17.7     0.02800353     -1194.4700625937 -4.97E+01
     5 OT LS       0.18E+00   17.0                    -1200.3527299462
     6 OT LS       0.16E+00   17.6                    -1200.4771834018
     7 OT CG       0.13E+00   17.8     0.01270784     -1200.5797491795 -6.11E+00
     8 OT LS       0.18E+00   17.0                    -1202.1274019295
     9 OT LS       0.28E+00   17.0                    -1202.4859841671
    10 OT CG       0.22E+00   17.7     0.01066858     -1202.7525627289 -2.17E+00
    11 OT LS       0.31E+00   17.0                    -1204.1869227572
    12 OT LS       0.25E+00   17.0                    -1204.1401792195
    13 OT CG       0.20E+00   19.0     0.00780796     -1204.2136211720 -1.46E+00
    14 OT LS       0.28E+00   17.0                    -1204.9485208568
    15 OT LS       0.26E+00   17.0                    -1204.9749893181
    16 OT CG       0.21E+00   17.6     0.00546915     -1204.9833123202 -7.70E-01
    17 OT LS       0.29E+00   17.0                    -1205.3703272807
    18 OT LS       0.28E+00   17.0                    -1205.4017426779
    19 OT CG       0.23E+00   17.7     0.00464318     -1205.4019129595 -4.19E-01
    20 OT LS       0.32E+00   17.0                    -1205.6918473353
    21 OT LS       0.29E+00   17.0                    -1205.7030161224
    22 OT CG       0.23E+00   17.7     0.00378889     -1205.7060843062 -3.04E-01
    23 OT LS       0.32E+00   17.1                    -1205.8720287206
    24 OT LS       0.23E+00   17.1                    -1205.8476747310
    25 OT CG       0.19E+00   18.4     0.00329944     -1205.8720697218 -1.66E-01
    26 OT LS       0.26E+00   17.2                    -1206.0002906812
    27 OT LS       0.26E+00   17.1                    -1206.0117282364
    28 OT CG       0.21E+00   17.7     0.00273616     -1206.0117281702 -1.40E-01
    29 OT LS       0.29E+00   17.0                    -1206.1158007812
    30 OT LS       0.33E+00   16.9                    -1206.1297110214
    31 OT CG       0.26E+00   17.7     0.00253008     -1206.1307452876 -1.19E-01
    32 OT LS       0.36E+00   17.1                    -1206.2064711912
    33 OT LS       0.24E+00   17.0                    -1206.1863938119
    34 OT CG       0.19E+00   18.4     0.00221192     -1206.2069086251 -7.62E-02
    35 OT LS       0.27E+00   17.1                    -1206.2719618728
    36 OT LS       0.33E+00   17.0                    -1206.2829768589
    37 OT CG       0.26E+00   17.7     0.00211468     -1206.2856655667 -7.88E-02
    38 OT LS       0.37E+00   17.0                    -1206.3437925604
    39 OT LS       0.25E+00   17.0                    -1206.3322099946
    40 OT CG       0.20E+00   17.6     0.00190749     -1206.3437965198 -5.81E-02
    41 OT LS       0.29E+00   17.0                    -1206.3915434593
    42 OT LS       0.29E+00   17.0                    -1206.3963948665
    43 OT CG       0.23E+00   17.7     0.00179454     -1206.3964283553 -5.26E-02
    44 OT LS       0.33E+00   17.0                    -1206.4404495014
    45 OT LS       0.29E+00   17.2                    -1206.4411678296
    46 OT CG       0.23E+00   17.8     0.00168173     -1206.4420871963 -4.57E-02
    47 OT LS       0.32E+00   17.3                    -1206.4779030539
    48 OT LS       0.26E+00   17.0                    -1206.4766585649
    49 OT CG       0.21E+00   17.8     0.00151451     -1206.4784971917 -3.64E-02
    50 OT LS       0.30E+00   17.5                    -1206.5064248048
    51 OT LS       0.25E+00   17.0                    -1206.5063046084
    52 OT CG       0.20E+00   17.7     0.00139969     -1206.5072096723 -2.87E-02
    53 OT LS       0.28E+00   17.1                    -1206.5297562308
    54 OT LS       0.25E+00   17.0                    -1206.5303346932
    55 OT CG       0.20E+00   17.7     0.00125214     -1206.5306586124 -2.34E-02
    56 OT LS       0.28E+00   17.6                    -1206.5475263583
    57 OT LS       0.22E+00   17.0                    -1206.5460019797
    58 OT CG       0.17E+00   17.8     0.00102904     -1206.5476181968 -1.70E-02
    59 OT LS       0.24E+00   17.8                    -1206.5599695719
    60 OT LS       0.28E+00   17.1                    -1206.5619079072
    61 OT CG       0.23E+00   17.7     0.00090691     -1206.5622775239 -1.47E-02
    62 OT LS       0.32E+00   17.0                    -1206.5719956690
    63 OT LS       0.24E+00   17.6                    -1206.5708761973
    64 OT CG       0.19E+00   17.8     0.00079978     -1206.5720156316 -9.74E-03
    65 OT LS       0.27E+00   17.1                    -1206.5798081224
    66 OT LS       0.28E+00   17.7                    -1206.5806746669
    67 OT CG       0.22E+00   17.7     0.00066092     -1206.5806961530 -8.68E-03
    68 OT LS       0.31E+00   17.0                    -1206.5861253212
    69 OT LS       0.26E+00   17.2                    -1206.5859791029
    70 OT CG       0.21E+00   17.7     0.00061417     -1206.5862271659 -5.53E-03
    71 OT LS       0.29E+00   17.7                    -1206.5906423541
    72 OT LS       0.25E+00   17.0                    -1206.5906391277
    73 OT CG       0.20E+00   17.7     0.00053301     -1206.5907666712 -4.54E-03
    74 OT LS       0.28E+00   17.0                    -1206.5941572045
    75 OT LS       0.26E+00   17.0                    -1206.5943359788
    76 OT CG       0.21E+00   17.8     0.00046245     -1206.5943548399 -3.59E-03
    77 OT LS       0.29E+00   17.7                    -1206.5969269626
    78 OT LS       0.26E+00   17.1                    -1206.5969904197
    79 OT CG       0.21E+00   17.8     0.00042357     -1206.5970308985 -2.68E-03
    80 OT LS       0.29E+00   17.0                    -1206.5990530196
    81 OT LS       0.23E+00   17.0                    -1206.5989639307
    82 OT CG       0.19E+00   17.7     0.00036636     -1206.5990809384 -2.05E-03
    83 OT LS       0.26E+00   17.4                    -1206.6006513472
    84 OT LS       0.26E+00   17.3                    -1206.6007971776
    85 OT CG       0.21E+00   17.6     0.00032562     -1206.6007973377 -1.72E-03
    86 OT LS       0.29E+00   16.9                    -1206.6020499597
    87 OT LS       0.25E+00   16.9                    -1206.6020260892
    88 OT CG       0.20E+00   17.7     0.00028257     -1206.6020768188 -1.28E-03
    89 OT LS       0.28E+00   17.2                    -1206.6030732698
    90 OT LS       0.28E+00   17.0                    -1206.6031742533
    91 OT CG       0.23E+00   17.7     0.00025279     -1206.6031750686 -1.10E-03
    92 OT LS       0.32E+00   17.1                    -1206.6039724220
    93 OT LS       0.26E+00   17.0                    -1206.6039446852
    94 OT CG       0.21E+00   17.7     0.00022523     -1206.6039854195 -8.10E-04
    95 OT LS       0.29E+00   17.0                    -1206.6046190820
    96 OT LS       0.27E+00   17.0                    -1206.6046548635
    97 OT CG       0.22E+00   17.6     0.00020353     -1206.6046576177 -6.72E-04
    98 OT LS       0.31E+00   17.7                    -1206.6051897279
    99 OT LS       0.27E+00   17.3                    -1206.6052068883
   100 OT CG       0.22E+00   17.8     0.00017939     -1206.6052136550 -5.56E-04
   101 OT LS       0.31E+00   17.0                    -1206.6056465144
   102 OT LS       0.30E+00   17.1                    -1206.6056763987
   103 OT CG       0.24E+00   17.7     0.00016557     -1206.6056771307 -4.63E-04
   104 OT LS       0.33E+00   17.5                    -1206.6060270405
   105 OT LS       0.26E+00   17.0                    -1206.6060077720
   106 OT CG       0.21E+00   17.7     0.00015340     -1206.6060308601 -3.54E-04
   107 OT LS       0.30E+00   17.1                    -1206.6063194632
   108 OT LS       0.26E+00   17.0                    -1206.6063259095
   109 OT CG       0.21E+00   17.8     0.00014423     -1206.6063307567 -3.00E-04
   110 OT LS       0.29E+00   17.1                    -1206.6065777252
   111 OT LS       0.25E+00   17.7                    -1206.6065756011
   112 OT CG       0.20E+00   18.6     0.00013013     -1206.6065839710 -2.53E-04
   113 OT LS       0.28E+00   17.0                    -1206.6067882032
   114 OT LS       0.26E+00   17.1                    -1206.6068008830
   115 OT CG       0.21E+00   17.8     0.00011835     -1206.6068014912 -2.18E-04
   116 OT LS       0.30E+00   17.0                    -1206.6069845542
   117 OT LS       0.29E+00   16.9                    -1206.6069981644
   118 OT CG       0.23E+00   17.7     0.00010518     -1206.6069983465 -1.97E-04
   119 OT LS       0.32E+00   17.4                    -1206.6071467191
   120 OT LS       0.29E+00   17.0                    -1206.6071506097

  Leaving inner SCF loop after reaching   120 steps.


  Electronic density on regular grids:       -141.0064942021       54.9935057979
  Core density on regular grids:              196.0000000000       -0.0000000000
  Hard and soft densities (Lebedev):         -309.8694219062     -254.8759361473
  Total Rho_soft + Rho1_hard - Rho1_soft     -195.9999799609
  Total charge density (r-space):               0.0000200391
  Total Rho_soft + Rho0_soft (g-space):         0.0000196283

  Overlap energy of the core charge distribution:               0.00004865229915
  Self energy of the core charge distribution:               -994.85580942027639
  Core Hamiltonian energy:                                   -191.60801305558701
  Hartree energy:                                             366.12113398042152
  Exchange-correlation energy:                                -48.27421067312078
  Hartree-Fock Exchange energy:                               -40.80131429628481

  GAPW| Exc from hard and soft atomic rho1:                   -80.40350042837805
  GAPW| local Eh = 1 center integrals:                       -216.78548536880339

  Total energy:                                             -1206.60715060972962

  outer SCF iter =    1 RMS gradient =   0.11E-03 energy =      -1206.6071506097

  ----------------------------------- OT ---------------------------------------
  Minimizer      : CG                  : conjugate gradient
  Preconditioner : FULL_ALL            : diagonalization, state selective
  Precond_solver : DEFAULT
  Line search    : 3PNT                : 3 energies
  stepsize       :    0.15000000                  energy_gap     :    0.00100000
  eps_taylor     :   0.10000E-15                  max_taylor     :             4
  ----------------------------------- OT ---------------------------------------

  Step     Update method      Time    Convergence         Total energy    Change
  ------------------------------------------------------------------------------
     1 OT CG       0.12E+00   34.9     0.00027034     -1206.6071528505 -1.55E-04
     2 OT LS       0.17E+00   17.0                    -1206.6078135918
     3 OT LS       0.26E+00   17.0                    -1206.6079694256
     4 OT CG       0.21E+00   17.7     0.00006273     -1206.6080950156 -9.42E-04
     5 OT LS       0.11E+00   17.0                    -1206.6080886789
     6 OT LS       0.98E-01   17.0                    -1206.6081137168
     7 OT CG       0.79E-01   17.7     0.00002102     -1206.6081138314 -1.88E-05
     8 OT LS       0.11E+00   17.3                    -1206.6081165304
     9 OT LS       0.19E+00   18.3                    -1206.6081172265
    10 OT CG       0.16E+00   17.6     0.00001212     -1206.6081180118 -4.18E-06
    11 OT LS       0.22E+00   17.0                    -1206.6081189583
    12 OT LS       0.14E+00   17.1                    -1206.6081186201
    13 OT CG       0.11E+00   17.7     0.00000361     -1206.6081189801 -9.68E-07

  *** SCF run converged in    13 steps ***


  Electronic density on regular grids:       -141.0060641056       54.9939358944
  Core density on regular grids:              196.0000000000       -0.0000000000
  Hard and soft densities (Lebedev):         -309.8748731491     -254.8809573764
  Total Rho_soft + Rho1_hard - Rho1_soft     -195.9999798784
  Total charge density (r-space):               0.0000201216
  Total Rho_soft + Rho0_soft (g-space):         0.0000197108

  Overlap energy of the core charge distribution:               0.00004865229915
  Self energy of the core charge distribution:               -994.85580942027639
  Core Hamiltonian energy:                                   -191.60536870879650
  Hartree energy:                                             366.11678605154890
  Exchange-correlation energy:                                -48.27430832272236
  Hartree-Fock Exchange energy:                               -40.80167611749235

  GAPW| Exc from hard and soft atomic rho1:                   -80.40413255716771
  GAPW| local Eh = 1 center integrals:                       -216.78365855745963

  Total energy:                                             -1206.60811898006705

  outer SCF iter =    2 RMS gradient =   0.36E-05 energy =      -1206.6081189801
  outer SCF loop converged in   2 iterations or  133 steps


  Eigenvalues of the occupied subspace spin            1
 ---------------------------------------------
     -19.25038650    -19.24669991    -19.17115057    -14.39327290
     -10.30132494    -10.29799085    -10.29373363    -10.28368500
     -10.28271072    -10.28034163    -10.26814596    -10.24771953
     -10.24667027    -10.24407294    -10.24023474    -10.23960845
     -10.23814884    -10.23796783    -10.23723064    -10.23562699
     -10.23413368    -10.23141875    -10.23110358    -10.23052380
     -10.23047645    -10.23019787    -10.22851380    -10.22811527
      -1.10746074     -1.10365243     -1.02516832     -0.97262817
      -0.89878385     -0.89643610     -0.88020572     -0.83054583
      -0.81070779     -0.79393676     -0.79059949     -0.78183053
      -0.77643626     -0.75981258     -0.72904112     -0.72582385
      -0.69938588     -0.67153485     -0.64190693     -0.63816502
      -0.63570755     -0.62836164     -0.59755577     -0.58684448
      -0.56589812     -0.55564711     -0.54429631     -0.54195080
      -0.52161722     -0.51144493     -0.50987867     -0.50050707
      -0.49624852     -0.49396816     -0.49263649     -0.49087403
      -0.47307404     -0.46530273     -0.45664987     -0.44921487
      -0.44723491     -0.43999048     -0.43870457     -0.43394174
      -0.42696898     -0.41706097     -0.41391271     -0.40807070
      -0.40217048     -0.39693078     -0.39382907     -0.38829633
      -0.38297794     -0.38070319     -0.37255802     -0.36572152
      -0.35756878     -0.35451306     -0.35309106     -0.34899546
      -0.33572973     -0.31263814     -0.30298301     -0.27759183
      -0.27322312     -0.25823150     -0.25258743     -0.25020326
      -0.24029696     -0.23631721
 Fermi Energy [eV] :   -6.430518

  Lowest Eigenvalues of the unoccupied subspace spin            1
 -----------------------------------------------------
 WARNING : did not converge in ot_eigensolver
 number of iterations          299  exceeded maximum
 current gradient / target gradient   2.8354849190833605E-005  /    1.0000000000000001E-005
      -0.08938792

 HOMO - LUMO gap [eV] :    3.998149

 *******************************************************************************
 **                                                                           **
 **         ######## #######   #######   ######## #######  ########           **
 **            ##    ##     ## ##     ## ##       ##   ##     ##              **
 **            ##    ##     ## ##     ## ######   #######     ##              **
 **            ##    ##     ## ##     ## ##       ##          ##              **
 **            ##    #######   #######   ##       ##          ##              **
 **                                                                           **
 *******************************************************************************
 KERNEL|                                                                    FULL
 FUNCTIONAL| PBE:
 FUNCTIONAL| J.P.Perdew, K.Burke, M.Ernzerhof, Phys. Rev. Letter, vol. 77, n 18,
 FUNCTIONAL|  pp. 3865-3868, (1996)sx=0.750sc=1.000{spin unpolarized}
 KERNEL|                                                          Exact Exchange
 KERNEL| Spin symmetry of excitations                                    Singlet
 TDDFPT| Number of states calculated                                          50
 TDDFPT| Number of Davidson iterations                                        50
 TDDFPT| Davidson iteration convergence                                0.367E-05
 TDDFPT| Max. number of Krylov space vectors                                5000
 TDDFPT| Molecular Orbitals:        Spin       AOs       Occ      Virt     Total
 TDDFPT|                               1       994        98       896       994

 -------------------------------------------------------------------------------
 -                            TDDFPT Initial Guess                             -
 -------------------------------------------------------------------------------
          State         Occupied      ->      Virtual          Excitation
          number         orbital              orbital          energy (eV)
 -------------------------------------------------------------------------------
             1               98                   99              3.99751
             2               97                   99              4.10581
             3               96                   99              4.37537
             4               95                   99              4.44025
             5               94                   99              4.59383
             6               98                  100              4.63102
             7               97                  100              4.73931
             8               93                   99              5.00178
             9               96                  100              5.00887
            10               95                  100              5.07375
            11               92                   99              5.12065
            12               94                  100              5.22733
            13               93                  100              5.63528
            14               92                  100              5.75416
            15               91                   99              5.81158
            16               98                  101              5.95543
            17               97                  101              6.06373
            18               90                   99              6.07431
            19               98                  102              6.10880
            20               98                  103              6.15039
            21               98                  104              6.21418
            22               97                  102              6.21710
            23               97                  103              6.25868
            24               97                  104              6.32248
            25               96                  101              6.33329
            26               95                  101              6.39817
            27               91                  100              6.44508
            28               96                  102              6.48666
            29               96                  103              6.52825
            30               95                  102              6.55154
            31               94                  101              6.55175
            32               96                  104              6.59204
            33               95                  103              6.59312
            34               95                  104              6.65692
            35               89                   99              6.70267
            36               94                  102              6.70512
            37               90                  100              6.70781
            38               94                  103              6.74671
            39               94                  104              6.81050
            40               93                  101              6.95969
            41               88                   99              7.06365
            42               92                  101              7.07857
            43               93                  102              7.11306
            44               93                  103              7.15465
            45               87                   99              7.17509
            46               86                   99              7.21379
            47               93                  104              7.21844
            48               92                  102              7.23194
            49               92                  103              7.27353
            50               98                  105              7.29621

      Number of active states:                                      87808
 -------------------------------------------------------------------------------

 -------------------------------------------------------------------------------
 -                      TDDFPT WAVEFUNCTION OPTIMIZATION                       -
 -------------------------------------------------------------------------------

          Step            Time         Convergence           Conv. states
 -------------------------------------------------------------------------------
^C[mpiexec@fe1b9c99996b] Sending Ctrl-C to processes as requested
[mpiexec@fe1b9c99996b] Press Ctrl-C again to force abort

===================================================================================
=   BAD TERMINATION OF ONE OF YOUR APPLICATION PROCESSES
=   PID 538 RUNNING AT fe1b9c99996b
=   EXIT CODE: 9
=   CLEANING UP REMAINING PROCESSES
=   YOU CAN IGNORE THE BELOW CLEANUP MESSAGES
===================================================================================
YOUR APPLICATION TERMINATED WITH THE EXIT STRING: Killed (signal 9)
This typically refers to a problem with your application.
Please see the FAQ page for debugging suggestions
