 DBCSR| CPU Multiplication driver                                           XSMM (U)
 DBCSR| Multrec recursion limit                                              512 (U)
 DBCSR| Multiplication stack size                                           1000 (D)
 DBCSR| Maximum elements for images                                    UNLIMITED (U)
 DBCSR| Multiplicative factor virtual images                                   1 (U)
 DBCSR| Use multiplication densification                                       T (D)
 DBCSR| Multiplication size stacks                                             3 (U)
 DBCSR| Use memory pool for CPU allocation                                     F (U)
 DBCSR| Number of 3D layers                                               SINGLE (U)
 DBCSR| Use MPI memory allocation                                              F (U)
 DBCSR| Use RMA algorithm                                                      F (U)
 DBCSR| Use Communication thread                                               T (U)
 DBCSR| Communication thread load                                             75 (D)
 DBCSR| MPI: My process id                                                     0
 DBCSR| MPI: Number of processes                                              90
 DBCSR| OMP: Current number of threads                                         4
 DBCSR| OMP: Max number of threads                                             4
 DBCSR| Split modifier for TAS multiplication algorithm                  1.0E+00 (U)


  **** **** ******  **  PROGRAM STARTED AT               2024-01-04 16:20:27.970
 ***** ** ***  *** **   PROGRAM STARTED ON                          64d499fd14d2
 **    ****   ******    PROGRAM STARTED BY                             <unknown>
 ***** **    ** ** **   PROGRAM PROCESS ID                                   538
  **** **  *******  **  PROGRAM STARTED IN                                  /mnt

 CP2K| version string:                                       CP2K version 2023.2
 CP2K| source code revision number:                                  git:65cca6c
 CP2K| cp2kflags: omp libint fftw3 libxc pexsi elpa parallel scalapack cosma qui
 CP2K|            p xsmm plumed2 spglib sirius libvori libbqb libtorch libvdwxc
 CP2K| is freely available from                            https://www.cp2k.org/
 CP2K| Program compiled at                          Wed Oct 18 11:40:41 UTC 2023
 CP2K| Program compiled on                                          633bb7bf566f
 CP2K| Program compiled for                                                local
 CP2K| Data directory path                                        /opt/cp2k/data
 CP2K| Input file name                                            4amp15_pbe0.in

 GLOBAL| Force Environment number                                              1
 GLOBAL| Basis set file name                                    BASIS_MOLOPT_UZH
 GLOBAL| Potential file name                                       POTENTIAL_UZH
 GLOBAL| MM Potential file name                                     MM_POTENTIAL
 GLOBAL| Coordinate file name                                      __STD_INPUT__
 GLOBAL| Method name                                                        CP2K
 GLOBAL| Project name                                                4amp15_pbe0
 GLOBAL| Run type                                                         ENERGY
 GLOBAL| FFT library                                                       FFTW3
 GLOBAL| Diagonalization library                                       ScaLAPACK
 GLOBAL| DGEMM library                                                      BLAS
 GLOBAL| Orthonormality check for eigenvectors                          DISABLED
 GLOBAL| Matrix multiplication library                                     COSMA
 GLOBAL| All-to-all communication in single precision                          F
 GLOBAL| FFTs using library dependent lengths                                  F
 GLOBAL| Grid backend                                                       AUTO
 GLOBAL| Global print level                                                  LOW
 GLOBAL| MPI I/O enabled                                                       T
 GLOBAL| Total number of message passing processes                            90
 GLOBAL| Number of threads for this process                                    4
 GLOBAL| This output is from process                                           0
 GLOBAL| Stack size for threads created by OpenMP (OMP_STACKSIZE)            16M
 GLOBAL| CPU model name                                            AMD EPYC 9B14
 GLOBAL| CPUID                                                              1003
 GLOBAL| Compiled for CPUID                                                    0

 *** HINT in environment.F:904 :: The compiler target flags (generic) used ***
 *** to build this binary cannot exploit all extensions of this CPU model  ***
 *** (x86_avx512). Consider compiler target flags as part of FCFLAGS and   ***
 *** CFLAGS (ARCH file).                                                   ***


 MEMORY| system memory details [Kb]
 MEMORY|                        rank 0           min           max       average
 MEMORY| MemTotal            730500096     730500096     730500096     730500096
 MEMORY| MemFree             716233740     716233740     716234252     716234183
 MEMORY| Buffers                 16716         16716         16716         16716
 MEMORY| Cached                 820044        820044        820044        820044
 MEMORY| Slab                   626360        626360        626360        626360
 MEMORY| SReclaimable           142188        142188        142188        142188
 MEMORY| MemLikelyFree       717212688     717212688     717213200     717213131


 GENERATE|  Preliminary Number of Bonds generated:                             0
 GENERATE|  Achieved consistency in connectivity generation.

 *******************************************************************************
 *******************************************************************************
 **                                                                           **
 **     #####                         ##              ##                      **
 **    ##   ##            ##          ##              ##                      **
 **   ##     ##                       ##            ######                    **
 **   ##     ##  ##   ##  ##   #####  ##  ##   ####   ##    #####    #####    **
 **   ##     ##  ##   ##  ##  ##      ## ##   ##      ##   ##   ##  ##   ##   **
 **   ##  ## ##  ##   ##  ##  ##      ####     ###    ##   ######   ######    **
 **    ##  ###   ##   ##  ##  ##      ## ##      ##   ##   ##       ##        **
 **     #######   #####   ##   #####  ##  ##  ####    ##    #####   ##        **
 **           ##                                                    ##        **
 **                                                                           **
 **                                                ... make the atoms dance   **
 **                                                                           **
 **            Copyright (C) by CP2K developers group (2000-2023)             **
 **                      J. Chem. Phys. 152, 194103 (2020)                    **
 **                                                                           **
 *******************************************************************************


 TOTAL NUMBERS AND MAXIMUM NUMBERS

  Total number of            - Atomic kinds:                                   4
                             - Atoms:                                        196
                             - Shell sets:                                   196
                             - Shells:                                      1120
                             - Primitive Cartesian functions:                980
                             - Cartesian basis functions:                   2520
                             - Spherical basis functions:                   2408

  Maximum angular momentum of- Orbital basis functions:                        2
                             - Local part of the GTH pseudopotential:          2
                             - Non-local part of the GTH pseudopotential:      0

  AUX_FIT ADMM-Basis: 
  Total number of            - Shell sets:                                  1120
                             - Shells:                                      1120
                             - Primitive Cartesian functions:               1428
                             - Cartesian basis functions:                   2520
                             - Spherical basis functions:                   2408
                               Maximum angular momentum                        2


 SCF PARAMETERS         Density guess:                                    ATOMIC
                        --------------------------------------------------------
                        max_scf:                                              20
                        max_scf_history:                                       0
                        max_diis:                                              4
                        --------------------------------------------------------
                        eps_scf:                                        1.00E-05
                        eps_scf_history:                                0.00E+00
                        eps_diis:                                       1.00E-01
                        eps_eigval:                                     1.00E-05
                        --------------------------------------------------------
                        level_shift [a.u.]:                             0.000000
                        --------------------------------------------------------
                        Outer loop SCF in use 
                        No variables optimised in outer loop
                        eps_scf                                         1.00E-05
                        max_scf                                               20
                        No outer loop optimization
                        step_size                                       5.00E-01

 Number of electrons:                                                        560
 Number of occupied orbitals:                                                280
 Number of molecular orbitals:                                               280

 Number of orbital functions:                                               2408
 Number of independent orbital functions:                                   2408

 Extrapolation method: initial_guess


 SCF WAVEFUNCTION OPTIMIZATION

  ----------------------------------- OT ---------------------------------------
  Minimizer      : DIIS                : direct inversion
                                         in the iterative subspace
                                         using   7 DIIS vectors
                                         safer DIIS on
  Preconditioner : FULL_ALL            : diagonalization, state selective
  Precond_solver : DEFAULT
  stepsize       :    0.15000000                  energy_gap     :    0.00100000
  eps_taylor     :   0.10000E-15                  max_taylor     :             4
  ----------------------------------- OT ---------------------------------------

  Step     Update method      Time    Convergence         Total energy    Change
  ------------------------------------------------------------------------------
     1 OT DIIS     0.15E+00  251.6     0.03335421      -751.3456795536 -7.51E+02
     2 OT DIIS     0.15E+00  231.3     0.04768379      -793.3221408971 -4.20E+01
     3 OT DIIS     0.15E+00  231.1     0.03869793      -804.2650400218 -1.09E+01
     4 OT DIIS     0.15E+00  231.2     0.05725984      -801.8124975174  2.45E+00
     5 OT DIIS     0.15E+00  232.0     0.01443034      -818.0287818401 -1.62E+01
     6 OT DIIS     0.15E+00  232.7     0.01406861      -820.3920049690 -2.36E+00
     7 OT DIIS     0.15E+00  230.9     0.00586039      -822.8641214874 -2.47E+00
     8 OT DIIS     0.15E+00  231.2     0.00470157      -823.6721231932 -8.08E-01
     9 OT DIIS     0.15E+00  232.3     0.00286467      -824.3143787747 -6.42E-01
    10 OT DIIS     0.15E+00  231.2     0.00195935      -824.7656459324 -4.51E-01
    11 OT DIIS     0.15E+00  231.7     0.00159555      -824.9743035750 -2.09E-01
    12 OT DIIS     0.15E+00  231.2     0.00123503      -825.1580993402 -1.84E-01
    13 OT DIIS     0.15E+00  232.1     0.00102606      -825.2910857496 -1.33E-01
    14 OT DIIS     0.15E+00  231.7     0.00085685      -825.3899162330 -9.88E-02
    15 OT DIIS     0.15E+00  231.2     0.00064356      -825.4743376412 -8.44E-02
    16 OT DIIS     0.15E+00  231.2     0.00052037      -825.5112156351 -3.69E-02
    17 OT DIIS     0.15E+00  232.4     0.00036011      -825.5400435581 -2.88E-02
    18 OT DIIS     0.15E+00  231.3     0.00027315      -825.5549578337 -1.49E-02
    19 OT DIIS     0.15E+00  231.4     0.00024594      -825.5612114489 -6.25E-03
    20 OT DIIS     0.15E+00  231.6     0.00016434      -825.5678764992 -6.67E-03

  Leaving inner SCF loop after reaching    20 steps.


  Electronic density on regular grids:       -559.9999999687        0.0000000313
  Core density on regular grids:              559.9999999598       -0.0000000402
  Total charge density on r-space grids:       -0.0000000088
  Total charge density g-space grids:          -0.0000000088

  Overlap energy of the core charge distribution:               0.00146218304205
  Self energy of the core charge distribution:              -1985.29240839861768
  Core Hamiltonian energy:                                    637.68901413262574
  Hartree energy:                                             778.42985837929120
  Exchange-correlation energy:                               -198.42443371190018
  Hartree-Fock Exchange energy:                               -57.97136908368466

  Total energy:                                              -825.56787649924343

  outer SCF iter =    1 RMS gradient =   0.16E-03 energy =       -825.5678764992

  ----------------------------------- OT ---------------------------------------
  Minimizer      : DIIS                : direct inversion
                                         in the iterative subspace
                                         using   7 DIIS vectors
                                         safer DIIS on
  Preconditioner : FULL_ALL            : diagonalization, state selective
  Precond_solver : DEFAULT
  stepsize       :    0.15000000                  energy_gap     :    0.00100000
  eps_taylor     :   0.10000E-15                  max_taylor     :             4
  ----------------------------------- OT ---------------------------------------

  Step     Update method      Time    Convergence         Total energy    Change
  ------------------------------------------------------------------------------
     1 OT DIIS     0.15E+00  465.4     0.00046085      -825.5720022399 -4.13E-03
     2 OT DIIS     0.15E+00  231.3     0.00019349      -825.5867521642 -1.47E-02
     3 OT DIIS     0.15E+00  232.1     0.00013565      -825.5891989562 -2.45E-03
     4 OT DIIS     0.15E+00  231.8     0.00001666      -825.5896602759 -4.61E-04
     5 OT DIIS     0.15E+00  231.2     0.00000619      -825.5896691405 -8.86E-06

  *** SCF run converged in     5 steps ***


  Electronic density on regular grids:       -559.9999999687        0.0000000313
  Core density on regular grids:              559.9999999598       -0.0000000402
  Total charge density on r-space grids:       -0.0000000088
  Total charge density g-space grids:          -0.0000000088

  Overlap energy of the core charge distribution:               0.00146218304205
  Self energy of the core charge distribution:              -1985.29240839861768
  Core Hamiltonian energy:                                    637.69153683729382
  Hartree energy:                                             778.41739644563847
  Exchange-correlation energy:                               -198.42885353252518
  Hartree-Fock Exchange energy:                               -57.97880267535902

  Total energy:                                              -825.58966914052746

  outer SCF iter =    2 RMS gradient =   0.62E-05 energy =       -825.5896691405
  outer SCF loop converged in   2 iterations or   25 steps

  
  Eigenvalues of the occupied subspace spin            1
 ---------------------------------------------
      -0.90942728     -0.90941057     -0.90772818     -0.90771138
      -0.90462934     -0.90461407     -0.90452433     -0.90450855
      -0.87347105     -0.87345110     -0.87336623     -0.87334787
      -0.78157825     -0.78150047     -0.78126407     -0.78119220
      -0.70915495     -0.70900098     -0.70857755     -0.70836184
      -0.70655967     -0.70619571     -0.70605696     -0.70579258
      -0.69447288     -0.69390032     -0.69357689     -0.69303937
      -0.64470294     -0.64463617     -0.64429653     -0.64424885
      -0.61358086     -0.61317940     -0.61285089     -0.61237747
      -0.60583934     -0.60560312     -0.60451725     -0.60420437
      -0.60114525     -0.60070300     -0.60052290     -0.59950404
      -0.59845157     -0.59731850     -0.59459088     -0.59399912
      -0.58772990     -0.58717119     -0.58686877     -0.58646688
      -0.57433373     -0.57380178     -0.57356618     -0.57317866
      -0.54690442     -0.54639820     -0.54524583     -0.54453612
      -0.54026378     -0.53961051     -0.53886088     -0.53845286
      -0.50487500     -0.50473412     -0.50441386     -0.50433735
      -0.48209209     -0.48199678     -0.48108237     -0.48099327
      -0.45742188     -0.45739398     -0.45725354     -0.45717486
      -0.45402859     -0.45316341     -0.45235736     -0.45182697
      -0.45120033     -0.44992434     -0.44980900     -0.44970251
      -0.44152646     -0.44095364     -0.44055541     -0.44026046
      -0.41105638     -0.41071524     -0.40949011     -0.40870715
      -0.39907038     -0.39816332     -0.39685986     -0.39566621
      -0.38572849     -0.38559678     -0.38183123     -0.38083914
      -0.37230318     -0.37207411     -0.37083551     -0.37007129
      -0.36692741     -0.36658868     -0.36607385     -0.36448634
      -0.35962533     -0.35936536     -0.35448021     -0.35419208
      -0.33219047     -0.33174116     -0.33107402     -0.33042143
      -0.32217965     -0.32200808     -0.32044002     -0.31909691
      -0.31829975     -0.31722509     -0.31716958     -0.31669304
      -0.30747831     -0.30705729     -0.30506514     -0.30408311
      -0.30203375     -0.30167737     -0.30089907     -0.30080951
      -0.30075189     -0.29906829     -0.29775356     -0.29605526
      -0.29299575     -0.29231987     -0.29231558     -0.29202042
      -0.29201063     -0.29189648     -0.29108283     -0.29086544
      -0.28544575     -0.28514210     -0.28321678     -0.28230265
      -0.27587812     -0.27531093     -0.27299920     -0.27276021
      -0.26389294     -0.26313968     -0.26248444     -0.26170941
      -0.25807550     -0.25618503     -0.25537383     -0.25519483
      -0.25423636     -0.25140054     -0.25078548     -0.24975379
      -0.24968981     -0.24964625     -0.24637573     -0.24604170
      -0.24550535     -0.24433292     -0.24346714     -0.24333137
      -0.23369137     -0.23365036     -0.23236040     -0.23232200
      -0.22989561     -0.22984583     -0.22732536     -0.22666785
      -0.22352376     -0.22326457     -0.22304421     -0.22296526
      -0.21836800     -0.21816031     -0.21779590     -0.21735244
      -0.21462708     -0.21317941     -0.21076945     -0.20959860
      -0.20944510     -0.20943788     -0.20730543     -0.20713314
      -0.20224297     -0.20201219     -0.19987466     -0.19963077
      -0.19280910     -0.19193144     -0.19180547     -0.19143592
      -0.18293178     -0.18292205     -0.18190828     -0.18076733
      -0.17680969     -0.17492594     -0.17477620     -0.17436262
      -0.17307642     -0.17296711     -0.17291509     -0.17278943
      -0.17153762     -0.17066867     -0.17035579     -0.16859008
      -0.16557178     -0.16384307     -0.16354767     -0.16348620
      -0.15470056     -0.15397053     -0.15242873     -0.15126042
      -0.14268918     -0.14194449     -0.14121480     -0.14104417
      -0.13896872     -0.13876602     -0.13860767     -0.13851941
      -0.13332937     -0.13314823     -0.12953980     -0.12854310
      -0.12402236     -0.12339515     -0.11808550     -0.11802796
      -0.09645204     -0.09624474     -0.09469634     -0.09460319
      -0.08926512     -0.08831883     -0.08785072     -0.08672876
      -0.06301219     -0.06292928     -0.05682984     -0.05664490
      -0.05567728     -0.05363178     -0.05131219     -0.04865160
      -0.04856447     -0.04826357     -0.04809638     -0.04775409
      -0.04535830     -0.04423633     -0.04307136     -0.04275848
      -0.02699508     -0.02499586     -0.02382432     -0.02197360
      -0.02113771     -0.02046864     -0.02038913     -0.01956620
      -0.01429244     -0.01379587     -0.01049006     -0.00988241
 Fermi Energy [eV] :   -0.268914
  
  Lowest Eigenvalues of the unoccupied subspace spin            1
 -----------------------------------------------------
 WARNING : did not converge in ot_eigensolver
 number of iterations          299  exceeded maximum
 current gradient / target gradient   2.2818655147090858E-005  /    1.0000000000000001E-005
       0.13061769
  
 HOMO - LUMO gap [eV] :    3.823202

 *******************************************************************************
 **                                                                           **
 **         ######## #######   #######   ######## #######  ########           **
 **            ##    ##     ## ##     ## ##       ##   ##     ##              **
 **            ##    ##     ## ##     ## ######   #######     ##              **
 **            ##    ##     ## ##     ## ##       ##          ##              **
 **            ##    #######   #######   ##       ##          ##              **
 **                                                                           **
 *******************************************************************************
 KERNEL|                                                                    sTDA
 KERNEL| Coulomb term uses Ewald summation
 KERNEL| Exact exchange term                                                 YES
 KERNEL| Short range HFX fraction:                                         0.200
 KERNEL| Transition density filter                                     0.100E-09
 KERNEL| Spin symmetry of excitations                                    Singlet
 TDDFPT| Number of states calculated                                          50
 TDDFPT| Number of Davidson iterations                                       100
 TDDFPT| Davidson iteration convergence                                0.367E-05
 TDDFPT| Max. number of Krylov space vectors                                5000
 TDDFPT| Molecular Orbitals:        Spin       AOs       Occ      Virt     Total
 TDDFPT|                               1      2408       280      2128      2408
 sTDA| HFX Fraction                                                       0.2000
 sTDA| Mataga-Nishimoto exponent (C)                                      1.5160
 sTDA| Mataga-Nishimoto exponent (X)                                      0.5660
 sTDA| TD matrix filter                                           0.10000000E-09
 
 -------------------------------------------------------------------------------
 -                      sTDA Kernel: Create Matrix SQRT(S)                     -
 -------------------------------------------------------------------------------

     Lanczos converged:  F threshold:   0.100E-03
     Est. extremal eigenvalues:    0.119E+02   0.278E-02
     Est. condition number :    0.427E+04

 Order=           3
     NS sqrt iter    1 1.00000000   0.297E+01       0.063     7940.385
     NS sqrt iter    2 1.00000000   0.151E+01       0.090    13740.452
     NS sqrt iter    3 1.00000000   0.823E+00       0.089    13904.889
     NS sqrt iter    4 1.00000000   0.575E+00       0.089    13927.247
     NS sqrt iter    5 1.00000000   0.441E+00       0.089    13980.592
     NS sqrt iter    6 1.00000000   0.312E+00       0.090    13734.584
     NS sqrt iter    7 1.00000000   0.179E+00       0.091    13654.536
     NS sqrt iter    8 1.00000000   0.885E-01       0.094    13192.257
     NS sqrt iter    9 1.00000000   0.207E-01       0.091    13593.872
     NS sqrt iter   10 1.00000000   0.477E-03       0.092    13069.337
     NS sqrt iter   11 1.00000000   0.114E-07       0.048     6669.634
     Symmetrizing Results
     Final NS sqrt iter   11 1.00000000   0.574E-07


 EWALD| Summation is done by:                                               SPME
 EWALD| Alpha parameter [       ANGSTROM^-1]                              1.8897
 EWALD| Real Space Cutoff [          ANGSTROM]                            1.7854
 EWALD| G-space max. Miller index                        125        45       225
 EWALD| Spline interpolation order                                             6
 
 -------------------------------------------------------------------------------
 -                            TDDFPT Initial Guess                             -
 -------------------------------------------------------------------------------
          State         Occupied      ->      Virtual          Excitation
          number         orbital              orbital          energy (eV)
 -------------------------------------------------------------------------------
             1              280                  281              3.81474
             2              280                  282              3.81894
             3              280                  283              3.82719
             4              280                  284              3.82798
             5              279                  281              3.83128
             6              279                  282              3.83547
             7              279                  283              3.84372
             8              279                  284              3.84452
             9              278                  281              3.92124
            10              278                  282              3.92543
            11              278                  283              3.93368
            12              278                  284              3.93447
            13              277                  281              3.93475
            14              277                  282              3.93894
            15              277                  283              3.94719
            16              277                  284              3.94798
            17              276                  281              4.07825
            18              276                  282              4.08245
            19              276                  283              4.09070
            20              276                  284              4.09149
            21              275                  281              4.10065
            22              274                  281              4.10281
            23              275                  282              4.10484
            24              274                  282              4.10700
            25              275                  283              4.11309
            26              275                  284              4.11388
            27              274                  283              4.11525
            28              274                  284              4.11605
            29              273                  281              4.12102
            30              273                  282              4.12521
            31              273                  283              4.13346
            32              273                  284              4.13425
            33              272                  281              4.14376
            34              272                  282              4.14796
            35              272                  283              4.15620
            36              272                  284              4.15700
            37              271                  281              4.19412
            38              271                  282              4.19832
            39              271                  283              4.20657
            40              271                  284              4.20736
            41              270                  281              4.22600
            42              270                  282              4.23020
            43              270                  283              4.23844
            44              270                  284              4.23924
            45              269                  281              4.28040
            46              269                  282              4.28460
            47              269                  283              4.29285
            48              269                  284              4.29364
            49              280                  285              4.49060
            50              279                  285              4.50713

      Number of active states:                                     595840
 -------------------------------------------------------------------------------
 
 -------------------------------------------------------------------------------
 -                      TDDFPT WAVEFUNCTION OPTIMIZATION                       -
 -------------------------------------------------------------------------------

          Step            Time         Convergence           Conv. states
 -------------------------------------------------------------------------------
             1             8.6          2.4286E-02                      0
             2            13.2          7.3881E-03                      0
             3            10.9          7.7712E-04                      0
             4             9.1          4.7786E-03                      1
             5             9.2          1.6405E-03                     38
             6             9.4          4.3466E-04                     46
             7            12.9          1.8840E-05                     46
             8            11.8          8.7658E-07                     50
 ------------------------- Restart Davidson iterations -------------------------
             9             5.3          5.5511E-16                     50
 
 -------------------------------------------------------------------------------
 -  TDDFPT run converged in 9 iteration(s) 
 -------------------------------------------------------------------------------

 R-TDDFPT states of multiplicity 1
 Transition dipoles calculated using velocity formulation

         State    Excitation        Transition dipole (a.u.)        Oscillator
         number   energy (eV)       x           y           z     strength (a.u.)
         ------------------------------------------------------------------------
 TDDFPT|      1       3.15576  -1.7633E-01 -8.5450E-02  5.1140E-02   3.17069E-03
 TDDFPT|      2       3.15684   6.2343E-01 -2.2909E-02 -1.8110E-01   3.26366E-02
 TDDFPT|      3       3.16004  -9.5389E-02 -1.0048E-01  2.7607E-02   1.54514E-03
 TDDFPT|      4       3.16099  -5.8017E-01  1.4593E-02  1.6882E-01   2.82909E-02
 TDDFPT|      5       3.18762   3.6340E-01  2.6837E-02 -1.0461E-01   1.12244E-02
 TDDFPT|      6       3.18809  -4.7319E-01  2.4501E-02  1.3510E-01   1.89613E-02
 TDDFPT|      7       3.19012   2.5132E+00  2.1630E-02 -7.0866E-01   5.32918E-01
 TDDFPT|      8       3.21118  -3.2024E-02  2.0753E+00  8.1221E-03   3.38931E-01
 TDDFPT|      9       3.30313   2.2697E-02  1.5944E-02 -1.7222E-03   6.25024E-05
 TDDFPT|     10       3.30686   2.3286E-01  1.9618E-02 -5.2029E-03   4.42654E-03
 TDDFPT|     11       3.30758  -1.8696E+00 -1.0754E-01  2.4913E-02   2.84225E-01
 TDDFPT|     12       3.31398   9.8593E-02 -1.9753E+00  2.3131E-03   3.17588E-01
 TDDFPT|     13       3.35348   1.8675E-01  9.8161E-02 -7.9098E-02   4.17097E-03
 TDDFPT|     14       3.35457  -8.8956E-02  2.0939E-01  3.7562E-02   4.36971E-03
 TDDFPT|     15       3.35893   2.9117E-01  1.7563E-01 -1.3794E-01   1.10812E-02
 TDDFPT|     16       3.36003  -1.6405E-01  3.0644E-01  7.8534E-02   1.04535E-02
 TDDFPT|     17       3.40831   9.2634E-01  1.7396E-02  8.3519E-01   1.29926E-01
 TDDFPT|     18       3.41011  -2.9684E-02 -2.9061E-01 -1.9268E-02   7.16040E-03
 TDDFPT|     19       3.41072   1.5069E-02 -7.6135E-01  2.5790E-02   4.85110E-02
 TDDFPT|     20       3.41897  -1.4532E-02  5.4936E-03 -1.6213E-02   4.22342E-05
 TDDFPT|     21       3.44187  -1.7652E-01 -9.0578E-02 -1.7979E-01   6.04514E-03
 TDDFPT|     22       3.44219   6.3774E-02 -1.9109E-01  6.6852E-02   3.79945E-03
 TDDFPT|     23       3.44599   3.0429E-01 -1.1657E-02  2.3044E-01   1.23117E-02
 TDDFPT|     24       3.44690   2.2493E-02  4.5219E-01  4.3594E-03   1.73116E-02
 TDDFPT|     25       3.45838   1.1585E+00  6.0160E-03 -5.2662E-01   1.37210E-01
 TDDFPT|     26       3.46206  -2.8209E-01  4.3884E-02  1.0239E-01   7.80214E-03
 TDDFPT|     27       3.46299   1.0068E-02 -2.0588E-02 -5.5719E-03   4.71967E-05
 TDDFPT|     28       3.46589   1.4224E-01  2.4046E-03 -2.7313E-02   1.78175E-03
 TDDFPT|     29       3.46932  -1.9102E+00  1.3609E-02  2.2228E-01   3.14362E-01
 TDDFPT|     30       3.47245   1.4499E-01 -1.1878E+00 -2.0923E-02   1.21859E-01
 TDDFPT|     31       3.47287   6.5629E-01  2.7979E-01 -1.0358E-01   4.42206E-02
 TDDFPT|     32       3.47682  -1.7884E-02 -4.2474E-01  4.0148E-03   1.53953E-02
 TDDFPT|     33       3.53450  -4.4700E-03 -5.9823E-02  2.8558E-03   3.12338E-04
 TDDFPT|     34       3.53598   1.3632E-01  2.2136E-03 -5.6738E-02   1.88928E-03
 TDDFPT|     35       3.56200  -1.6689E+00 -2.8430E-03  8.2411E-01   3.02315E-01
 TDDFPT|     36       3.58091  -3.5020E-02  1.0139E+00  1.2767E-02   9.03058E-02
 TDDFPT|     37       3.60934   4.0069E-02  7.4324E-02 -1.4913E-02   6.50110E-04
 TDDFPT|     38       3.61206   1.5750E-01 -1.7998E-02 -5.8780E-02   2.52972E-03
 TDDFPT|     39       3.61761   1.3539E+00  1.7748E-01 -3.4809E-01   1.75989E-01
 TDDFPT|     40       3.61924   4.7955E-01 -3.1564E-01 -1.6057E-01   3.15119E-02
 TDDFPT|     41       3.62030   1.7024E-01  7.0209E-01 -9.3922E-02   4.70735E-02
 TDDFPT|     42       3.62160  -2.5455E-01  7.5458E-01  9.4390E-02   5.70613E-02
 TDDFPT|     43       3.62504  -4.3685E-02  9.6722E-02  1.3611E-02   1.01679E-03
 TDDFPT|     44       3.62781   3.2304E-03 -2.1772E-02 -1.4070E-02   6.06554E-05
 TDDFPT|     45       3.65587   3.2182E-02 -7.8822E-02  2.7113E-02   7.15078E-04
 TDDFPT|     46       3.65703   3.1482E-02  7.3475E-02  2.8409E-02   6.44792E-04
 TDDFPT|     47       3.65797  -2.9026E-02  7.1491E-02 -2.5016E-02   5.89623E-04
 TDDFPT|     48       3.65969   3.1436E-02  7.1054E-02  2.6222E-02   6.02917E-04
 TDDFPT|     49       3.70267   8.3483E-02  2.1167E-02 -5.6367E-02   9.61081E-04
 TDDFPT|     50       3.70449  -3.3917E-02  6.0560E-02  2.2962E-02   4.85115E-04

 TDDFPT : CheckSum  =  0.897170E+00
 
 -------------------------------------------------------------------------------
 -                            Excitation analysis                              -
 -------------------------------------------------------------------------------
        State             Occupied              Virtual             Excitation
        number             orbital              orbital             amplitude
 -------------------------------------------------------------------------------
             1   3.15576 eV
                               280                  281               0.575820
                               280                  283               0.456161
                               279                  281               0.357674
                               279                  283               0.293801
                               278                  282              -0.248011
                               277                  282              -0.177968
                               278                  284               0.161262
                               278                  283               0.151648
                               280                  282              -0.139180
                               277                  284               0.116554
                               280                  284              -0.116409
                               277                  283               0.111918
                               278                  281               0.105610
                               279                  284              -0.075056
                               277                  281               0.062168
                               279                  282              -0.057833
                               272                  282               0.048112
                               274                  282              -0.047390
                               275                  281               0.041818
                               273                  281              -0.040122
                               270                  282               0.036663
                               274                  284               0.029102
                               275                  283               0.027047
                               272                  283              -0.026787
                               272                  284              -0.025701
                               274                  283               0.025312
                               273                  283              -0.024283
                               276                  281               0.023934
                               269                  282               0.019884
                               270                  284              -0.018329
                               270                  283              -0.017990
                               272                  281              -0.017403
                               274                  281               0.017217
                               276                  283               0.015982
                               262                  282               0.015041
                               270                  281              -0.014594
                               263                  281              -0.013167
                               260                  283              -0.012928
                               260                  281              -0.012914
                               273                  287               0.012048
                               271                  287               0.011995
                               270                  285              -0.011254
                               269                  285              -0.010481
                               260                  282               0.010004
             2   3.15684 eV
                               280                  282               0.669360
                               280                  284              -0.401715
                               279                  282               0.306315
                               278                  281              -0.282653
                               279                  284              -0.263543
                               277                  281              -0.149866
                               278                  284               0.149311
                               278                  283              -0.144326
                               277                  283              -0.116197
                               277                  284               0.110762
                               280                  281               0.100054
                               278                  282              -0.097260
                               279                  281               0.077116
                               277                  282              -0.066766
                               280                  283              -0.057489
                               274                  281              -0.053735
                               279                  283              -0.046596
                               272                  281               0.041448
                               273                  282              -0.038633
                               270                  281               0.038192
                               275                  282               0.033932
                               272                  283               0.030805
                               274                  284               0.028269
                               276                  282               0.027373
                               272                  284              -0.027281
                               274                  283              -0.025027
                               275                  284              -0.024226
                               274                  282              -0.020900
                               273                  284               0.019838
                               270                  283               0.018227
                               270                  284              -0.018073
                               272                  282               0.017825
                               269                  281               0.017506
                               263                  282              -0.016290
                               276                  284              -0.015421
                               279                  285              -0.014902
                               273                  285               0.014158
                               270                  282               0.013992
                               262                  281               0.013722
                               279                  286               0.012845
                               261                  284               0.012797
                               271                  285               0.011795
                               261                  282              -0.011767
                               279                  292              -0.010869
                               270                  287              -0.010767
                               261                  281              -0.010601
                               275                  285              -0.010174
                               263                  284               0.010016
             3   3.16004 eV
                               280                  283              -0.531322
                               280                  281               0.436529
                               279                  283               0.403561
                               279                  281              -0.333161
                               277                  284               0.208803
                               278                  284              -0.195526
                               280                  284               0.160001
                               278                  283              -0.159478
                               277                  282               0.155082
                               278                  282              -0.155015
                               279                  284              -0.153343
                               277                  283               0.150401
                               277                  281              -0.049091
                               272                  284              -0.042416
                               278                  281               0.041315
                               272                  282              -0.038897
                               274                  284              -0.037650
                               275                  281              -0.035781
                               273                  281              -0.035592
                               274                  283              -0.034107
                               274                  282              -0.033675
                               273                  283               0.033496
                               272                  283              -0.031586
                               275                  283               0.029669
                               270                  282               0.028548
                               270                  284               0.027880
                               279                  282               0.026955
                               270                  283               0.022713
                               280                  282              -0.020913
                               269                  282              -0.017926
                               276                  281               0.016009
                               275                  284              -0.015653
                               276                  283              -0.015565
                               260                  283              -0.014514
                               269                  284              -0.012553
                               272                  281               0.012290
                               274                  281               0.012017
                               262                  283               0.011988
                               262                  282               0.011883
                               271                  287               0.011794
                               263                  281              -0.011641
                               273                  287              -0.011424
                               261                  284               0.011185
                               273                  284              -0.011056
                               263                  283               0.010897
                               262                  284               0.010727
                               279                  288              -0.010525
                               270                  285               0.010322
                               269                  285              -0.010111
             4   3.16099 eV
                               280                  284              -0.600242
                               280                  282              -0.393810
                               279                  284               0.336052
                               279                  282               0.329563
                               278                  283              -0.216255
                               280                  283              -0.215600
                               277                  281              -0.191591
                               278                  281               0.167469
                               278                  284               0.163881
                               277                  283               0.156544
                               277                  284              -0.131812
                               279                  283               0.098581
                               272                  281               0.045530
                               277                  282              -0.045015
                               274                  283              -0.041634
                               278                  282               0.041112
                               275                  282               0.036241
                               280                  281              -0.035818
                               272                  283              -0.035193
                               275                  284               0.034347
                               273                  284               0.034107
                               274                  281               0.033933
                               270                  283               0.030866
                               279                  281               0.028764
                               274                  284               0.028307
                               272                  284               0.028302
                               273                  282               0.026086
                               270                  281              -0.026033
                               270                  284              -0.023386
                               269                  281               0.020278
                               276                  284              -0.019781
                               279                  286               0.019415
                               273                  285               0.016383
                               263                  284               0.015956
                               276                  282              -0.013907
                               270                  287              -0.012592
                               262                  283               0.012522
                               261                  284              -0.012494
                               279                  285               0.011639
                               273                  283               0.011442
                               272                  282               0.010687
                               269                  283              -0.010512
                               263                  282               0.010342
                               262                  281              -0.010198
                               279                  292               0.010039
             5   3.18762 eV
                               279                  281               0.596082
                               279                  282              -0.514791
                               280                  283              -0.504832
                               277                  281               0.198703
                               277                  282              -0.153160
                               280                  284              -0.120879
                               278                  283              -0.114140
                               280                  282               0.097450
                               279                  284               0.055151
                               276                  283               0.051941
                               278                  284              -0.047977
                               273                  283               0.035035
                               280                  281              -0.033107
                               274                  283               0.029977
                               271                  281              -0.029282
                               280                  285               0.025544
                               277                  284              -0.025173
                               275                  281              -0.023606
                               279                  286               0.019588
                               271                  282               0.018426
                               269                  288              -0.015958
                               270                  287              -0.014171
                               275                  282               0.011727
                               271                  286               0.011233
                               280                  287              -0.010895
                               280                  298               0.010729
                               276                  284               0.010573
                               256                  282               0.010295
                               273                  292               0.010253
                               277                  283               0.010166
                               277                  286              -0.010163
                               264                  300               0.010018
                               252                  283               0.010003
             6   3.18809 eV
                               279                  282               0.610534
                               279                  281               0.496712
                               280                  284               0.478476
                               277                  282              -0.185427
                               280                  283              -0.183796
                               277                  281              -0.166882
                               278                  284              -0.120476
                               280                  282              -0.118682
                               279                  283              -0.063041
                               279                  284              -0.058003
                               276                  284              -0.049900
                               277                  283              -0.037604
                               273                  284              -0.030861
                               274                  284               0.025873
                               271                  281              -0.025539
                               280                  285              -0.025151
                               271                  282              -0.023307
                               275                  281              -0.021733
                               278                  283               0.021665
                               276                  283               0.021075
                               279                  286              -0.019250
                               273                  283               0.016246
                               275                  282              -0.016058
                               269                  288               0.015725
                               270                  287               0.014011
                               280                  281              -0.012469
                               271                  286              -0.011137
                               252                  284              -0.011005
                               280                  287              -0.010972
                               274                  283              -0.010793
                               256                  282               0.010720
                               280                  298              -0.010564
                               250                  282               0.010553
                               267                  283              -0.010349
                               277                  286              -0.010255
                               273                  292              -0.010165
             7   3.19012 eV
                               279                  284               0.703799
                               280                  282               0.460286
                               279                  283               0.384592
                               277                  283               0.222664
                               280                  284               0.203866
                               277                  284              -0.117819
                               280                  283               0.092559
                               278                  281              -0.060636
                               271                  284              -0.053489
                               280                  281              -0.048408
                               278                  283               0.043286
                               279                  282               0.041995
                               280                  286              -0.041160
                               269                  283              -0.035401
                               277                  281              -0.031091
                               273                  282              -0.031073
                               271                  283              -0.029718
                               278                  284              -0.028222
                               279                  285              -0.027114
                               276                  282              -0.026093
                               279                  281               0.020567
                               267                  282               0.019420
                               269                  284               0.018102
                               274                  281               0.016593
                               268                  281               0.015788
                               276                  284              -0.015401
                               272                  283              -0.014484
                               273                  286               0.014090
                               250                  284               0.013288
                               252                  282              -0.013053
                               280                  290               0.012680
                               271                  292              -0.012473
                               252                  286               0.012346
                               259                  295              -0.012105
                               254                  290               0.011522
                               277                  282              -0.010926
                               273                  284              -0.010925
                               253                  289              -0.010750
                               266                  283               0.010314
                               280                  294               0.010303
             8   3.21118 eV
                               279                  283               0.660066
                               280                  281              -0.587700
                               279                  284              -0.362579
                               277                  284               0.126374
                               271                  283              -0.098262
                               280                  283               0.097781
                               279                  281               0.095586
                               273                  281               0.080857
                               277                  283               0.064435
                               276                  281               0.061869
                               280                  282              -0.058181
                               280                  284              -0.055111
                               271                  284               0.053515
                               269                  284              -0.050799
                               274                  282              -0.039758
                               267                  281              -0.033979
                               277                  285               0.032572
                               278                  286               0.028391
                               273                  288              -0.027987
                               268                  282              -0.027652
                               269                  283              -0.026910
                               275                  287               0.020551
                               265                  283              -0.019943
                               270                  282              -0.018793
                               266                  284               0.018227
                               277                  282              -0.016267
                               278                  284               0.015746
                               271                  287              -0.012833
                               271                  281              -0.012530
                               278                  282               0.012236
                               253                  290               0.011993
                               264                  295              -0.011784
                               255                  282              -0.011520
                               254                  289              -0.011458
                               256                  284              -0.010881
                               255                  286               0.010620
                               272                  293               0.010568
                               276                  288               0.010552
                               256                  285               0.010465
                               265                  284               0.010415
                               258                  296              -0.010174
             9   3.30313 eV
                               277                  282              -0.630085
                               278                  284              -0.551079
                               278                  283              -0.374563
                               280                  283               0.197105
                               279                  281              -0.180444
                               277                  281               0.129395
                               272                  282              -0.111518
                               274                  284               0.103786
                               275                  281              -0.100001
                               280                  284              -0.081914
                               276                  283               0.075872
                               274                  283               0.070140
                               273                  283              -0.047901
                               278                  282               0.046799
                               271                  281               0.045566
                               276                  284              -0.039755
                               277                  284              -0.030239
                               277                  286               0.023994
                               278                  285               0.021731
                               273                  287              -0.021359
                               272                  281               0.020642
                               273                  284               0.018978
                               270                  284               0.018016
                               279                  288               0.016992
                               274                  282              -0.015943
                               269                  282               0.015766
                               271                  288              -0.015071
                               264                  281               0.014841
                               270                  283               0.014459
                               257                  281               0.014419
                               258                  283              -0.013873
                               280                  287               0.013649
                               278                  281              -0.013594
                               277                  283              -0.012862
                               280                  281               0.012355
                               274                  281               0.011992
                               275                  288               0.011803
                               275                  283               0.011641
                               256                  282               0.011588
                               272                  284              -0.011293
                               274                  285               0.011168
                               251                  285               0.010977
                               277                  294              -0.010911
                               278                  292               0.010720
                               272                  290               0.010686
                               270                  285              -0.010265
            10   3.30686 eV
                               277                  281               0.657337
                               278                  283              -0.528439
                               278                  284               0.367128
                               279                  282               0.198155
                               280                  284               0.178760
                               277                  282               0.126419
                               278                  281              -0.105955
                               274                  283               0.085235
                               272                  281               0.081837
                               280                  283               0.068819
                               271                  282              -0.063144
                               275                  282               0.061174
                               274                  284              -0.060917
                               273                  284              -0.051883
                               277                  283               0.050824
                               280                  282              -0.045095
                               276                  284               0.044209
                               273                  285               0.037503
                               277                  288              -0.036055
                               278                  287              -0.035674
                               270                  283               0.033565
                               269                  281              -0.027459
                               271                  286               0.025256
                               275                  286              -0.023851
                               274                  281               0.022131
                               273                  283              -0.021105
                               270                  284              -0.020866
                               272                  282               0.018438
                               265                  282              -0.018023
                               277                  284              -0.017088
                               273                  282               0.015257
                               267                  284               0.014880
                               266                  281              -0.014547
                               278                  291              -0.013547
                               276                  282              -0.012084
                               251                  287              -0.012030
                               272                  289              -0.011712
                               277                  289               0.011315
                               274                  291              -0.010923
                               249                  281              -0.010584
                               273                  292               0.010419
                               249                  288               0.010341
            11   3.30758 eV
                               278                  281               0.780920
                               277                  283              -0.443765
                               280                  282               0.220671
                               277                  284               0.208382
                               278                  283              -0.181876
                               274                  281              -0.114907
                               278                  284               0.089814
                               272                  283              -0.087964
                               279                  284               0.077575
                               269                  283               0.065016
                               276                  282               0.063271
                               273                  282              -0.057037
                               280                  284               0.052936
                               279                  283               0.042333
                               272                  284               0.039182
                               277                  281              -0.036148
                               270                  281              -0.033117
                               280                  283               0.029447
                               269                  284              -0.029257
                               278                  282               0.028331
                               280                  281              -0.027053
                               274                  283               0.025302
                               278                  288              -0.025077
                               277                  287              -0.022178
                               273                  286               0.019562
                               275                  284               0.017606
                               277                  291              -0.017040
                               271                  285               0.014471
                               274                  284              -0.013758
                               275                  285              -0.013529
                               273                  284              -0.013176
                               278                  289               0.013171
                               276                  284               0.013111
                               274                  289               0.012679
                               275                  283               0.012372
                               251                  281               0.011722
                               270                  288               0.011645
                               279                  285              -0.011236
                               273                  290              -0.010275
                               269                  287               0.010206
                               272                  287               0.010073
                               251                  288              -0.010005
            12   3.31398 eV
                               278                  282              -0.776403
                               277                  284              -0.446747
                               277                  283              -0.208794
                               274                  282               0.156467
                               280                  281              -0.145143
                               278                  284              -0.142853
                               277                  282               0.136831
                               276                  281              -0.123806
                               272                  284              -0.115968
                               269                  284               0.077505
                               278                  283              -0.074267
                               272                  283              -0.056494
                               270                  282               0.048681
                               275                  283               0.045583
                               271                  283               0.045335
                               269                  283               0.037413
                               279                  283               0.030472
                               279                  287               0.028710
                               274                  284               0.027894
                               278                  281               0.026899
                               275                  284              -0.026243
                               280                  282              -0.024795
                               271                  284              -0.024173
                               268                  282               0.023982
                               272                  282               0.023108
                               280                  288               0.022501
                               279                  284              -0.021845
                               270                  286              -0.021348
                               267                  281               0.020347
                               276                  282              -0.020100
                               269                  285              -0.019226
                               272                  285              -0.016794
                               275                  282               0.014963
                               269                  282              -0.014757
                               258                  281               0.014660
                               276                  283               0.013494
                               277                  292               0.013245
                               280                  283               0.012867
                               265                  283               0.012796
                               255                  282               0.012687
                               266                  284              -0.012653
                               257                  283              -0.012484
                               256                  284               0.012315
                               275                  301              -0.012248
                               274                  290              -0.011907
                               276                  304              -0.011703
                               274                  302              -0.011303
                               258                  288              -0.011180
                               278                  294              -0.010969
                               274                  281              -0.010868
                               254                  289               0.010839
                               259                  284              -0.010832
                               272                  293              -0.010644
                               253                  290              -0.010574
                               264                  283              -0.010540
                               274                  283               0.010501
                               256                  285              -0.010321
            13   3.35348 eV
                               278                  283               0.542849
                               277                  281               0.522026
                               278                  281               0.298597
                               277                  283               0.256386
                               279                  282               0.246170
                               277                  282              -0.203805
                               280                  283              -0.199350
                               280                  284              -0.148745
                               280                  282               0.146278
                               279                  281              -0.138684
                               278                  282              -0.128811
                               275                  282               0.098212
                               279                  283              -0.095028
                               280                  281              -0.083421
                               279                  284              -0.065132
                               275                  281              -0.062173
                               276                  283              -0.058497
                               276                  282               0.050434
                               273                  283               0.046284
                               276                  284              -0.042777
                               278                  284              -0.038096
                               275                  283              -0.036855
                               273                  284               0.031243
                               271                  282              -0.030642
                               274                  281               0.028353
                               273                  282              -0.027654
                               274                  282              -0.022463
                               273                  281               0.021808
                               276                  281              -0.020887
                               277                  284              -0.019588
                               271                  281               0.019555
[...]
 flops    24 x    32 x    80          11590041600       0.0%    100.0%      0.0%
 flops   103 x    24 x    75          12381012000       0.0%    100.0%      0.0%
 flops    17 x     6 x    32          12528746496       0.0%    100.0%      0.0%
 flops     6 x    17 x    32          12528746496       0.0%    100.0%      0.0%
 flops   103 x    24 x    80          13206412800       0.0%    100.0%      0.0%
 flops   109 x   160 x    24          15068160000       0.0%    100.0%      0.0%
 flops    69 x   161 x    32          15357081600       0.0%    100.0%      0.0%
 flops     6 x    24 x     6          16789441536       0.0%    100.0%      0.0%
 flops    80 x   161 x    32          17805312000       0.0%    100.0%      0.0%
 flops    85 x   161 x    32          18918144000       0.0%    100.0%      0.0%
 flops   109 x    24 x    86          20259088800       0.0%    100.0%      0.0%
 flops   109 x   162 x    32          20342016000       0.0%    100.0%      0.0%
 flops    69 x   160 x    32          20348928000       0.0%    100.0%      0.0%
 flops    97 x   161 x    32          21588940800       0.0%    100.0%      0.0%
 flops   109 x    24 x    75          21837060000       0.0%    100.0%      0.0%
 flops   109 x    24 x    80          23292864000       0.0%    100.0%      0.0%
 flops    80 x   160 x    32          23592960000       0.0%    100.0%      0.0%
 flops    85 x   160 x    32          25067520000       0.0%    100.0%      0.0%
 flops   115 x   161 x    32          25595136000       0.0%    100.0%      0.0%
 flops   120 x   161 x    32          26707968000       0.0%    100.0%      0.0%
 flops    69 x    32 x    86          27359063040       0.0%    100.0%      0.0%
 flops    97 x   160 x    32          28606464000       0.0%    100.0%      0.0%
 flops    69 x    32 x    75          29490048000       0.0%    100.0%      0.0%
 flops    69 x    32 x    80          31456051200       0.0%    100.0%      0.0%
 flops    80 x    32 x    86          31720652800       0.0%    100.0%      0.0%
 flops    75 x   161 x    32          33384960000       0.0%    100.0%      0.0%
 flops    85 x    32 x    86          33703193600       0.0%    100.0%      0.0%
 flops   115 x   160 x    32          33914880000       0.0%    100.0%      0.0%
 flops    80 x    32 x    75          34191360000       0.0%    100.0%      0.0%
 flops   120 x   160 x    32          35389440000       0.0%    100.0%      0.0%
 flops    85 x    32 x    75          36328320000       0.0%    100.0%      0.0%
 flops    80 x    32 x    80          36470784000       0.0%    100.0%      0.0%
 flops     6 x    17 x     6          37351544832       0.0%    100.0%      0.0%
 flops    17 x     6 x     6          37514801952       0.0%    100.0%      0.0%
 flops     6 x     6 x    17          37858398336       0.0%    100.0%      0.0%
 flops    86 x   161 x    32          38281420800       0.0%    100.0%      0.0%
 flops    97 x    32 x    86          38461291520       0.0%    100.0%      0.0%
 flops    85 x    32 x    80          38750208000       0.0%    100.0%      0.0%
 flops    97 x    32 x    75          41457024000       0.0%    100.0%      0.0%
 flops    97 x    32 x    80          44220825600       0.0%    100.0%      0.0%
 flops    75 x   160 x    32          44236800000       0.0%    100.0%      0.0%
 flops   115 x    32 x    86          45598438400       0.0%    100.0%      0.0%
 flops   120 x    32 x    86          47580979200       0.0%    100.0%      0.0%
 flops    17 x    17 x    32          47753416704       0.0%    100.0%      0.0%
 flops   115 x    32 x    75          49150080000       0.0%    100.0%      0.0%
 flops    86 x   160 x    32          50724864000       0.0%    100.0%      0.0%
 flops   120 x    32 x    75          51287040000       0.0%    100.0%      0.0%
 flops   115 x    32 x    80          52426752000       0.0%    100.0%      0.0%
 flops   120 x    32 x    80          54706176000       0.0%    100.0%      0.0%
 flops    75 x    32 x    86          59476224000       0.0%    100.0%      0.0%
 flops     6 x    24 x    17          63426779136       0.0%    100.0%      0.0%
 flops    17 x    24 x     6          63426779136       0.0%    100.0%      0.0%
 flops    75 x    32 x    75          64108800000       0.0%    100.0%      0.0%
 flops    86 x    32 x    86          68199403520       0.0%    100.0%      0.0%
 flops    75 x    32 x    80          68382720000       0.0%    100.0%      0.0%
 flops   103 x   161 x    32          68773017600       0.0%    100.0%      0.0%
 flops    86 x    32 x    75          73511424000       0.0%    100.0%      0.0%
 flops    86 x    32 x    80          78412185600       0.0%    100.0%      0.0%
 flops   103 x   160 x    32          91127808000       0.0%    100.0%      0.0%
 flops   109 x   161 x    32         121298688000       0.0%    100.0%      0.0%
 flops   103 x    32 x    86         122521021440       0.0%    100.0%      0.0%
 flops   103 x    32 x    75         132064128000       0.0%    100.0%      0.0%
 flops   103 x    32 x    80         140868403200       0.0%    100.0%      0.0%
 flops    17 x    17 x     6         143043403008       0.0%    100.0%      0.0%
 flops     6 x    17 x    17         144018521376       0.0%    100.0%      0.0%
 flops    17 x     6 x    17         144470706960       0.0%    100.0%      0.0%
 flops   109 x   160 x    32         160727040000       0.0%    100.0%      0.0%
 flops     6 x    32 x     6         181233303552       0.0%    100.0%      0.0%
 flops   109 x    32 x    86         216096947200       0.0%    100.0%      0.0%
 flops   109 x    32 x    75         232928640000       0.0%    100.0%      0.0%
 flops    17 x    24 x    17         239612276736       0.0%    100.0%      0.0%
 flops   109 x    32 x    80         248457216000       0.0%    100.0%      0.0%
 flops    17 x    17 x    17         549125931392       0.0%    100.0%      0.0%
 flops    17 x    32 x     6         684659146752       0.0%    100.0%      0.0%
 flops     6 x    32 x    17         684659146752       0.0%    100.0%      0.0%
 flops    17 x    32 x    17        2586490109952       0.0%    100.0%      0.0%
 flops inhomo. stacks               6046275887332     100.0%      0.0%      0.0%
 flops total                        15.400387E+12      39.3%     60.7%      0.0%
 flops max/rank                    316.335418E+09      42.1%     57.9%      0.0%
 matmuls inhomo. stacks                   7156652     100.0%      0.0%      0.0%
 matmuls total                          822747018       0.9%     99.1%      0.0%
 number of processed stacks              53649884      13.3%     86.7%      0.0%
 average stack size                                     1.0      17.5       0.0
 marketing flops                    13.537112E+12
 -------------------------------------------------------------------------------
 # multiplications                           8218
 max memory usage/rank             762.855424E+06
 # max total images/rank                        5
 # max 3D layers                                1
 # MPI messages exchanged                39199860
 MPI messages size (bytes):
  total size                         2.720681E+12
  min size                           0.000000E+00
  max size                         360.288000E+03
  average size                      69.405375E+03
 MPI breakdown and total messages size (bytes):
             size <=      128            22204653                   249344
       128 < size <=     8192              817931               2722807232
      8192 < size <=    32768             5104860             102320192576
     32768 < size <=   131072             1284368              93704348128
    131072 < size <=  4194304             9788048            2522011363808
   4194304 < size <= 16777216                   0                        0
  16777216 < size                               0                        0
 -------------------------------------------------------------------------------

 *** WARNING in dbcsr_mm.F:291 :: Using a non-square number of MPI ranks ***
 *** might lead to poor performance. Used ranks: 90 Suggested: 81 169    ***

 -------------------------------------------------------------------------------
 -                                                                             -
 -                      DBCSR MESSAGE PASSING PERFORMANCE                      -
 -                                                                             -
 -------------------------------------------------------------------------------
 ROUTINE             CALLS      AVE VOLUME [Bytes]
 MP_Bcast              332                     12.
 MP_Allreduce        39045                     10.
 MP_Alltoall         98922                  49600.
 MP_ISend           931652                  35066.
 MP_IRecv           935542                  34501.
 -------------------------------------------------------------------------------

 -------------------------------------------------------------------------------
 -                                                                             -
 -                                DBM STATISTICS                               -
 -                                                                             -
 -------------------------------------------------------------------------------
    M  x    N  x    K                                          COUNT     PERCENT
 -------------------------------------------------------------------------------

 -------------------------------------------------------------------------------
 -                                                                             -
 -                                GRID STATISTICS                              -
 -                                                                             -
 -------------------------------------------------------------------------------
 LP    KERNEL             BACKEND                              COUNT     PERCENT
 3     collocate general  CPU                                5936940      12.63%
 3     integrate general  CPU                                5732900      12.20%
 4     collocate general  CPU                                5266490      11.21%
 4     integrate general  CPU                                5066100      10.78%
 1     collocate general  CPU                                4947740      10.53%
 1     integrate general  CPU                                4946900      10.53%
 2     collocate general  CPU                                3888304       8.27%
 2     integrate general  CPU                                3837650       8.17%
 0     collocate general  CPU                                3695440       7.86%
 0     integrate general  CPU                                3677800       7.83%
 -------------------------------------------------------------------------------

 MEMORY| Estimated peak process memory [MiB]                                 743

 -------------------------------------------------------------------------------
 -                                                                             -
 -                         MESSAGE PASSING PERFORMANCE                         -
 -                                                                             -
 -------------------------------------------------------------------------------

 ROUTINE             CALLS      AVE VOLUME [Bytes]
 MP_Group                5
 MP_Bcast             3046                3049996.
 MP_Allreduce        91503                    210.
 MP_Sync               263
 MP_Alltoall          2078                1334257.
 MP_SendRecv          9434                  12000.
 MP_ISendRecv        13528                 107509.
 MP_Wait             43670
 MP_comm_split         130
 MP_ISend            21444                  53734.
 MP_IRecv            26098                  44147.
 MP_Write_All            2                  71100.
 -------------------------------------------------------------------------------


 -------------------------------------------------------------------------------
 -                                                                             -
 -                           R E F E R E N C E S                               -
 -                                                                             -
 -------------------------------------------------------------------------------
 
 CP2K version 2023.2, the CP2K developers group (2023).
 CP2K is freely available from https://www.cp2k.org/ .

 Kuehne,Thomas D.; Iannuzzi,Marcella; Del Ben,Mauro;
 Rybkin,Vladimir V.; Seewald,Patrick; Stein,Frederick; Laino,Teodoro;
 Khaliullin,Rustam Z.; Schuett,Ole; Schiffmann,Florian; Golze,Dorothea;
 Wilhelm,Jan; Chulkov,Sergey; Bani-Hashemian,Mohammad Hossein;
 Weber,Valery; Borstnik,Urban; Taillefumier,Mathieu;
 Jakobovits,Alice Shoshana; Lazzaro,Alfio; Pabst,Hans; Mueller,Tiziano;
 Schade,Robert; Guidon,Manuel; Andermatt,Samuel; Holmberg,Nico;
 Schenter,Gregory K.; Hehn,Anna; Bussy,Augustin; Belleflamme,Fabian;
 Tabacchi,Gloria; Gloess,Andreas; Lass,Michael; Bethune,Iain;
 Mundy,Christopher J.; Plessl,Christian; Watkins,Matt;
 VandeVondele,Joost; Krack,Matthias; Hutter,Juerg. 
 The Journal of Chemical Physics, 152 (19), (2020). 
 CP2K: An electronic structure and molecular dynamics software package -
 Quickstep: Efficient and accurate electronic structure calculations.
 https://doi.org/10.1063/5.0007045

 Grimme, S; Bannwarth, C. 
 The Journal of Chemical Physics, 145, 054103 (2016). 
 Ultra-fast computation of electronic spectra for large systems
 by tight-binding based simplified Tamm-Dancoff approximation (sTDA-xTB).
 https://doi.org/10.1063/1.4959605

 Schuett, Ole; Messmer, Peter; Hutter, Juerg; VandeVondele, Joost. 
 Electronic Structure Calculations on Graphics Processing Units, John
 Wiley & Sons, Ltd, 173-190 (2016). 
 GPU-Accelerated Sparse Matrix-Matrix Multiplication for
 Linear Scaling Density Functional Theory.
 https://doi.org/10.1002/9781118670712.ch8

 Heinecke, A; Henry, G; Hutchinson, M; Pabst, H. 
 Proceedings of Intl. Supercomputing Conference, 981-991 (2016). 
 LIBXSMM: Accelerating Small Matrix Multiplications
 by Runtime Code Generation.
 https://doi.org/10.1109/SC.2016.83

 Borstnik, U; VandeVondele, J; Weber, V; Hutter, J. 
 PARALLEL COMPUTING, 40 (5-6), 47-58 (2014). 
 Sparse matrix multiplication: The distributed block-compressed sparse
 row library.
 https://doi.org/10.1016/j.parco.2014.03.012

 Hutter, J; Iannuzzi, M; Schiffmann, F; VandeVondele, J. 
 WIREs Comput Mol Sci., 4 (1), 15-25 (2014). 
 CP2K: atomistic simulations of condensed matter systems.
 https://doi.org/10.1002/wcms.1159

 Grimme, S. The Journal of Chemical Physics, 138, 244104 (2013). 
 A simplified Tamm-Dancoff density functional approach for
 the electronic excitation spectra of very large molecules.
 https://doi.org/10.1063/1.4811331

 Guidon, M; Hutter, J; VandeVondele, J. 
 JOURNAL OF CHEMICAL THEORY AND COMPUTATION, 6 (8), 2348-2364 (2010). 
 Auxiliary Density Matrix Methods for Hartree-Fock Exchange Calculations.
 https://doi.org/10.1021/ct1002225

 Guidon, M; Hutter, J; VandeVondele, J. 
 JOURNAL OF CHEMICAL THEORY AND COMPUTATION, 5 (11), 3010-3021 (2009). 
 Robust Periodic Hartree-Fock Exchange for Large-Scale Simulations Using
 Gaussian Basis Sets.
 https://doi.org/10.1021/ct900494g

 Guidon, M; Schiffmann, F; Hutter, J; VandeVondele, J. 
 JOURNAL OF CHEMICAL PHYSICS, 128 (21), 214104 (2008). 
 Ab initio molecular dynamics using hybrid density functionals.
 https://doi.org/10.1063/1.2931945

 VandeVondele, J; Hutter, J. 
 JOURNAL OF CHEMICAL PHYSICS, 127 (11), 114105 (2007). 
 Gaussian basis sets for accurate calculations on molecular systems in
 gas and condensed phases.
 https://doi.org/10.1063/1.2770708

 Krack, M. 
 THEORETICAL CHEMISTRY ACCOUNTS, 114 (1-3), 145-152 (2005). 
 Pseudopotentials for H to Kr optimized for gradient-corrected
 exchange-correlation functionals.
 https://doi.org/10.1007/s00214-005-0655-y

 VandeVondele, J; Krack, M; Mohamed, F; Parrinello, M; Chassaing, T;
 Hutter, J. COMPUTER PHYSICS COMMUNICATIONS, 167 (2), 103-128 (2005). 
 QUICKSTEP: Fast and accurate density functional calculations using a
 mixed Gaussian and plane waves approach.
 https://doi.org/10.1016/j.cpc.2004.12.014

 Frigo, M; Johnson, SG. 
 PROCEEDINGS OF THE IEEE, 93 (2), 216-231 (2005). 
 The design and implementation of FFTW3.
 https://doi.org/10.1109/JPROC.2004.840301

 Iannuzzi, M; Chassaing, T; Wallman, T; Hutter, J. 
 CHIMIA, 59 (7-8), 499-503 (2005). 
 Ground and excited state density functional calculations with the
 Gaussian and augmented-plane-wave method.
 https://doi.org/10.2533/000942905777676164

 VandeVondele, J; Hutter, J. 
 JOURNAL OF CHEMICAL PHYSICS, 118 (10), 4365-4369 (2003). 
 An efficient orbital transformation method for electronic structure
 calculations.
 https://doi.org/10.1063/1.1543154

 Hartwigsen, C; Goedecker, S; Hutter, J. 
 PHYSICAL REVIEW B, 58 (7), 3641-3662 (1998). 
 Relativistic separable dual-space Gaussian pseudopotentials from H to Rn.
 https://doi.org/10.1103/PhysRevB.58.3641

 Lippert, G; Hutter, J; Parrinello, M. 
 MOLECULAR PHYSICS, 92 (3), 477-487 (1997). 
 A hybrid Gaussian and plane wave density functional scheme.
 https://doi.org/10.1080/002689797170220

 Perdew, JP; Burke, K; Ernzerhof, M. 
 PHYSICAL REVIEW LETTERS, 77 (18), 3865-3868 (1996). 
 Generalized gradient approximation made simple.
 https://doi.org/10.1103/PhysRevLett.77.3865

 Goedecker, S; Teter, M; Hutter, J. 
 PHYSICAL REVIEW B, 54 (3), 1703-1710 (1996). 
 Separable dual-space Gaussian pseudopotentials.
 https://doi.org/10.1103/PhysRevB.54.1703


 -------------------------------------------------------------------------------
 -                                                                             -
 -                                T I M I N G                                  -
 -                                                                             -
 -------------------------------------------------------------------------------
 SUBROUTINE                       CALLS  ASD         SELF TIME        TOTAL TIME
                                MAXIMUM       AVERAGE  MAXIMUM  AVERAGE  MAXIMUM
 CP2K                                 1  1.0    0.062    0.113 5931.225 5931.234
 qs_energies                          1  2.0    0.005    0.008 5930.425 5930.433
 scf_env_do_scf                       1  3.0    0.002    0.007 5811.491 5811.499
 qs_ks_update_qs_env                 27  5.0    0.000    0.001 5793.420 5793.436
 rebuild_ks_matrix                   25  6.0    0.000    0.000 5793.399 5793.415
 qs_ks_build_kohn_sham_matrix        25  7.0    0.010    0.016 5793.399 5793.415
 hfx_ks_matrix                       25  8.0    0.001    0.003 5767.758 5767.833
 integrate_four_center               25  9.0    2.398    2.539 5767.737 5767.808
 integrate_four_center_main          25 10.0   18.120   33.853 5651.539 5740.867
 integrate_four_center_bin         1609 11.0 5633.420 5719.832 5633.420 5719.832
 scf_env_do_scf_inner_loop           25  4.0    0.002    0.010 5327.118 5327.139
 init_scf_loop                        2  4.0    0.000    0.000  484.348  484.355
 mp_sync                            263 10.9   96.504  178.851   96.504  178.851
 -------------------------------------------------------------------------------

 The number of warnings for this run is : 1
 
 -------------------------------------------------------------------------------
  **** **** ******  **  PROGRAM ENDED AT                 2024-01-04 17:59:22.524
 ***** ** ***  *** **   PROGRAM RAN ON                              64d499fd14d2
 **    ****   ******    PROGRAM RAN BY                                 <unknown>
 ***** **    ** ** **   PROGRAM PROCESS ID                                   538
  **** **  *******  **  PROGRAM STOPPED IN                                  /mnt
