
     Program PWSCF v.7.2 starts on 26Feb2024 at 15:44:22

     This program is part of the open-source Quantum ESPRESSO suite
     for quantum simulation of materials; please cite
         "P. Giannozzi et al., J. Phys.:Condens. Matter 21 395502 (2009);
         "P. Giannozzi et al., J. Phys.:Condens. Matter 29 465901 (2017);
         "P. Giannozzi et al., J. Chem. Phys. 152 154105 (2020);
          URL http://www.quantum-espresso.org",
     in publications or presentations arising from this work. More details at
     http://www.quantum-espresso.org/quote

     Parallel version (MPI), running on   120 processors

     MPI processes distributed on     1 nodes
     453782 MiB available memory on the printing compute node when the environment starts

     Reading input from 4amp15iso_scf.in

     Current dimensions of program PWSCF are:
     Max number of different atomic species (ntypx) = 10
     Max number of k-points (npk) =  40000
     Max angular momentum in pseudopotentials (lmaxx) =  4

     Reading input from environ.in:
     * using full solvent mode
     * setting boundary derivatives method to SCCS default


     IMPORTANT: XC functional enforced from input :
     Exchange-correlation= PBE0
                           (   6   4   8   4   0   0   0)
     EXX-fraction              =        0.25
     Any further DFT definition will be discarded
     Please, verify this is what you really want


     gamma-point specific algorithms are used

     R & G space division:  proc/nbgrp/npool/nimage =     120
     Subspace diagonalization in iterative solution of the eigenvalue problem:
     a serial algorithm will be used

     EXX: q-point mesh:     1    1    1
     EXX: grid of k+q points same as grid of k-points

     Parallelization info
     --------------------
     sticks:   dense  smooth     PW     G-vecs:    dense   smooth      PW
     Min         681     681    170               146770   146770   18338
     Max         686     686    172               146790   146790   18352
     Sum       81861   81861  20461             17613727 17613727 2201421

     Using Slab Decomposition



     bravais-lattice index     =            1
     lattice parameter (alat)  =      56.6918  a.u.
     unit-cell volume          =  182205.0314 (a.u.)^3
     number of atoms/cell      =           49
     number of atomic types    =            4
     number of electrons       =       140.00
     number of Kohn-Sham states=           80
     kinetic-energy cutoff     =      80.0000  Ry
     charge density cutoff     =     320.0000  Ry
     cutoff for Fock operator  =     160.0000  Ry
     scf convergence threshold =      1.0E-06
     mixing beta               =       0.7000
     number of iterations used =            8  local-TF  mixing
     Exchange-correlation= PBE0
                           (   6   4   8   4   0   0   0)
     EXX-fraction              =        0.25

     ================================================================================

                                  Environ Setup Summary

     ================================================================================

     Please cite

          O. Andreussi, I. Dabo and N. Marzari, J. Chem. Phys. 136, 064102 (2012)

     in publications or presentations arising from this work.

     ================================================================================

     Parameters
     ==========

     compensation onset threshold      =               0.1000E+01
     static permittivity               =                    36.71
     surface tension in input (dyn/cm) =                    46.30
     surface tension in internal units =               0.5948E-04
     external pressure in input (GPa)  =                    -0.50
     external pressure in inter. units =              -0.3399E-04

     Solvent Boundary
     ================

     solvent mode                      =                     full
     derivatives method                =                    chain
     numerical core for derivatives    =                      fft
     switching function adopted        =                     SCCS
     density limit for vacuum region   =               0.5000E-02
     density limit for bulk solvent    =               0.1000E-03

     Electrostatic Setup
     ===================

     electrostatic problem to solve    =              generalized
     numerical solver adopted          =                       cg
     type of auxiliary density adopted =                     none
     numerical core for poisson        =                      fft

     ================================================================================


     celldm(1)=  56.691784  celldm(2)=   0.000000  celldm(3)=   0.000000
     celldm(4)=   0.000000  celldm(5)=   0.000000  celldm(6)=   0.000000

     crystal axes: (cart. coord. in units of alat)
               a(1) = (   1.000000   0.000000   0.000000 )
               a(2) = (   0.000000   1.000000   0.000000 )
               a(3) = (   0.000000   0.000000   1.000000 )

     reciprocal axes: (cart. coord. in units 2 pi/alat)
               b(1) = (  1.000000  0.000000  0.000000 )
               b(2) = (  0.000000  1.000000  0.000000 )
               b(3) = (  0.000000  0.000000  1.000000 )


     PseudoPot. # 1 for O  read from file:
     /home/cyk/q-e-qe-7.2/pp/O_ONCV_PBE-1.2.upf
     MD5 check sum: e36c48deb68f4e355fffe4602be2c42c
     Pseudo is Norm-conserving, Zval =  6.0
     Generated using ONCVPSP code by D. R. Hamann
     Using radial grid of  602 points,  4 beta functions with:
                l(1) =   0
                l(2) =   0
                l(3) =   1
                l(4) =   1

     PseudoPot. # 2 for N  read from file:
     /home/cyk/q-e-qe-7.2/pp/N_ONCV_PBE-1.2.upf
     MD5 check sum: c233fa8df51455e992258b7c3dee8a9f
     Pseudo is Norm-conserving, Zval =  5.0
     Generated using ONCVPSP code by D. R. Hamann
     Using radial grid of  602 points,  4 beta functions with:
                l(1) =   0
                l(2) =   0
                l(3) =   1
                l(4) =   1

     PseudoPot. # 3 for C  read from file:
     /home/cyk/q-e-qe-7.2/pp/C_ONCV_PBE-1.2.upf
     MD5 check sum: 1a5f83a7b1f58d24996abe00ed223ac6
     Pseudo is Norm-conserving, Zval =  4.0
     Generated using ONCVPSP code by D. R. Hamann
     Using radial grid of  602 points,  4 beta functions with:
                l(1) =   0
                l(2) =   0
                l(3) =   1
                l(4) =   1

     PseudoPot. # 4 for H  read from file:
     /home/cyk/q-e-qe-7.2/pp/H_ONCV_PBE-1.2.upf
     MD5 check sum: bf21e08b90ac4ce7d0149ac4e8138190
     Pseudo is Norm-conserving, Zval =  1.0
     Generated using ONCVPSP code by D. R. Hamann
     Using radial grid of  602 points,  2 beta functions with:
                l(1) =   0
                l(2) =   0

     atomic species   valence    mass     pseudopotential
        O              6.00    16.00000     O ( 1.00)
        N              5.00    14.00000     N ( 1.00)
        C              4.00    12.00000     C ( 1.00)
        H              1.00     1.00000     H ( 1.00)

     No symmetry found



   Cartesian axes

     site n.     atom                  positions (alat units)
         1           O   tau(   1) = (   0.5462541   0.4331852   0.4042008  )
         2           O   tau(   2) = (   0.6939469   0.2512038   0.4536294  )
         3           O   tau(   3) = (   0.2801487   0.6839465   0.4827301  )
         4           N   tau(   4) = (   0.4486243   0.5847983   0.5151516  )
         5           C   tau(   5) = (   0.6528577   0.3639463   0.5213566  )
         6           H   tau(   6) = (   0.6420974   0.3936758   0.5386088  )
         7           C   tau(   7) = (   0.6834873   0.3359866   0.5410118  )
         8           H   tau(   8) = (   0.6964854   0.3438536   0.5737276  )
         9           C   tau(   9) = (   0.6983548   0.2975891   0.5196167  )
        10           H   tau(  10) = (   0.7223976   0.2763438   0.5359003  )
        11           C   tau(  11) = (   0.6819851   0.2874455   0.4775368  )
        12           C   tau(  12) = (   0.6511610   0.3157129   0.4574593  )
        13           H   tau(  13) = (   0.6389158   0.3072719   0.4246258  )
        14           C   tau(  14) = (   0.6361401   0.3539179   0.4789095  )
        15           C   tau(  15) = (   0.6036690   0.3817412   0.4559461  )
        16           H   tau(  16) = (   0.5955628   0.3722100   0.4219964  )
        17           C   tau(  17) = (   0.5825542   0.4175593   0.4719211  )
        18           H   tau(  18) = (   0.5885017   0.4292236   0.5054474  )
        19           C   tau(  19) = (   0.5509535   0.4424124   0.4434532  )
        20           C   tau(  20) = (   0.5249215   0.4796642   0.4634914  )
        21           C   tau(  21) = (   0.5027998   0.5086600   0.4347106  )
        22           H   tau(  22) = (   0.5061373   0.5031260   0.3992505  )
        23           C   tau(  23) = (   0.4776330   0.5434976   0.4509179  )
        24           H   tau(  24) = (   0.4618101   0.5665256   0.4281164  )
        25           C   tau(  25) = (   0.4733668   0.5500554   0.4968866  )
        26           C   tau(  26) = (   0.4959993   0.5215619   0.5257954  )
        27           H   tau(  27) = (   0.4930651   0.5271333   0.5612680  )
        28           C   tau(  28) = (   0.5211439   0.4867392   0.5092889  )
        29           H   tau(  29) = (   0.5374610   0.4646898   0.5326354  )
        30           C   tau(  30) = (   0.4113826   0.5954548   0.4980909  )
        31           H   tau(  31) = (   0.3972162   0.5764957   0.4702561  )
        32           C   tau(  32) = (   0.3844445   0.6326668   0.5141711  )
        33           C   tau(  33) = (   0.3447892   0.6421123   0.4923656  )
        34           H   tau(  34) = (   0.3340797   0.6223626   0.4641523  )
        35           C   tau(  35) = (   0.3179672   0.6773131   0.5063378  )
        36           C   tau(  36) = (   0.3310361   0.7029187   0.5426266  )
        37           H   tau(  37) = (   0.3107902   0.7303174   0.5542057  )
        38           C   tau(  38) = (   0.3708680   0.6931234   0.5643787  )
        39           H   tau(  39) = (   0.3806838   0.7132988   0.5926191  )
        40           C   tau(  40) = (   0.3976674   0.6585047   0.5506035  )
        41           H   tau(  41) = (   0.4286037   0.6507299   0.5673008  )
        42           C   tau(  42) = (   0.7252170   0.2217001   0.4724419  )
        43           H   tau(  43) = (   0.7300808   0.1952336   0.4482572  )
        44           H   tau(  44) = (   0.7129221   0.2073746   0.5035838  )
        45           H   tau(  45) = (   0.7570563   0.2382914   0.4786081  )
        46           C   tau(  46) = (   0.2514248   0.7184192   0.4964069  )
        47           H   tau(  47) = (   0.2232707   0.7177672   0.4736972  )
        48           H   tau(  48) = (   0.2677273   0.7509158   0.4943623  )
        49           H   tau(  49) = (   0.2395469   0.7130504   0.5304145  )

     number of k points=     1
                       cart. coord. in units 2pi/alat
        k(    1) = (   0.0000000   0.0000000   0.0000000), wk =   2.0000000

     Dense  grid:  8806864 G-vectors     FFT dimensions: ( 324, 324, 324)

     Estimated max dynamical RAM per process >     612.25 MB

     Estimated total dynamical RAM >      71.75 GB
     EXX: ACE will be initialized later

     Initial potential from superposition of free atoms

     starting charge     139.7826, renormalised to     140.0000

     negative rho (up, down):  4.570E-03 0.000E+00
     Starting wfcs are random

     total cpu time spent up to now is       14.4 secs

     Self-consistent Calculation

     iteration #  1     ecut=    80.00 Ry     beta= 0.70
     Davidson diagonalization with overlap
     c_bands:  4 eigenvalues not converged
     ethr =  1.00E-02,  avg # of iterations = 20.0

     total cpu time spent up to now is      535.2 secs

     total energy              =    -414.22676840 Ry
     estimated scf accuracy    <       5.20135768 Ry
     electrostatic embedding   =       0.00000000 Ry
     cavitation energy         =       0.10592596 Ry
     PV energy                 =      -0.14400708 Ry
     correction to one-el term =      -0.00000000 Ry

     iteration #  2     ecut=    80.00 Ry     beta= 0.70
     Davidson diagonalization with overlap
     ethr =  3.72E-03,  avg # of iterations =  2.0

     total cpu time spent up to now is      550.0 secs

     total energy              =    -413.74023377 Ry
     estimated scf accuracy    <       1.59560246 Ry
     electrostatic embedding   =       0.00000000 Ry
     cavitation energy         =       0.10721219 Ry
     PV energy                 =      -0.14980980 Ry
     correction to one-el term =      -0.00000000 Ry

     iteration #  3     ecut=    80.00 Ry     beta= 0.70
     Davidson diagonalization with overlap
     ethr =  1.14E-03,  avg # of iterations =  2.0

     add environment contribution to local potential
     Polarization accuracy = 4.8E-26, # of iterations =  72

     total cpu time spent up to now is      571.6 secs

     total energy              =    -413.91396246 Ry
     estimated scf accuracy    <       0.25772461 Ry
     electrostatic embedding   =       0.00000000 Ry
     cavitation energy         =       0.10304307 Ry
     PV energy                 =      -0.14052868 Ry
     correction to one-el term =      -0.00000000 Ry

     iteration #  4     ecut=    80.00 Ry     beta= 0.70
     Davidson diagonalization with overlap
     ethr =  1.84E-04,  avg # of iterations = 10.0

     negative rho (up, down):  4.018E-06 0.000E+00

     add environment contribution to local potential
     Polarization accuracy = 7.5E-26, # of iterations =  85

     total cpu time spent up to now is      594.8 secs

     total energy              =    -413.85582679 Ry
     estimated scf accuracy    <       0.14859059 Ry
     electrostatic embedding   =      -0.10381683 Ry
     cavitation energy         =       0.09632935 Ry
     PV energy                 =      -0.12000228 Ry
     correction to one-el term =     -13.89356443 Ry

     iteration #  5     ecut=    80.00 Ry     beta= 0.70
     Davidson diagonalization with overlap
     ethr =  1.06E-04,  avg # of iterations =  7.0

     negative rho (up, down):  2.092E-02 0.000E+00

     add environment contribution to local potential
     Polarization accuracy = 4.7E-26, # of iterations =  93

     total cpu time spent up to now is      646.4 secs

     total energy              =    -413.84781947 Ry
     estimated scf accuracy    <       0.09126594 Ry
     electrostatic embedding   =      -0.10878695 Ry
     cavitation energy         =       0.09388483 Ry
     PV energy                 =      -0.11239487 Ry
     correction to one-el term =     -14.03131124 Ry

     iteration #  6     ecut=    80.00 Ry     beta= 0.70
     Davidson diagonalization with overlap
     ethr =  6.52E-05,  avg # of iterations =  8.0

     negative rho (up, down):  3.345E-01 0.000E+00

     add environment contribution to local potential
     Polarization accuracy = 8.8E-26, # of iterations =  93

     total cpu time spent up to now is      704.5 secs

     total energy              =    -413.85280508 Ry
     estimated scf accuracy    <       0.05934376 Ry
     electrostatic embedding   =      -0.09734979 Ry
     cavitation energy         =       0.09346297 Ry
     PV energy                 =      -0.11152156 Ry
     correction to one-el term =     -12.06978296 Ry

     iteration #  7     ecut=    80.00 Ry     beta= 0.70
     Davidson diagonalization with overlap
     ethr =  4.24E-05,  avg # of iterations = 19.0

     negative rho (up, down):  4.342E-01 0.000E+00

     add environment contribution to local potential
     Polarization accuracy = 3.9E-26, # of iterations =  83

     total cpu time spent up to now is      792.0 secs

     total energy              =    -413.86541013 Ry
     estimated scf accuracy    <       0.03197505 Ry
     electrostatic embedding   =      -0.08833210 Ry
     cavitation energy         =       0.09374072 Ry
     PV energy                 =      -0.11291165 Ry
     correction to one-el term =      -8.61624793 Ry

     iteration #  8     ecut=    80.00 Ry     beta= 0.70
     Davidson diagonalization with overlap
     ethr =  2.28E-05,  avg # of iterations =  9.0

     negative rho (up, down):  4.188E-01 0.000E+00

     add environment contribution to local potential
     Polarization accuracy = 9.4E-26, # of iterations =  81

     total cpu time spent up to now is      898.1 secs

     total energy              =    -413.87712503 Ry
     estimated scf accuracy    <       0.01552711 Ry
     electrostatic embedding   =      -0.07397789 Ry
     cavitation energy         =       0.09532848 Ry
     PV energy                 =      -0.11789058 Ry
     correction to one-el term =      -4.52501261 Ry

     iteration #  9     ecut=    80.00 Ry     beta= 0.70
     Davidson diagonalization with overlap
     c_bands:  1 eigenvalues not converged
     ethr =  1.11E-05,  avg # of iterations = 20.0

     negative rho (up, down):  2.834E-01 0.000E+00

     add environment contribution to local potential
     Polarization accuracy = 9.3E-26, # of iterations =  80

     total cpu time spent up to now is      997.9 secs

     total energy              =    -413.87792033 Ry
     estimated scf accuracy    <       0.00835955 Ry
     electrostatic embedding   =      -0.06901581 Ry
     cavitation energy         =       0.09556857 Ry
     PV energy                 =      -0.11860154 Ry
     correction to one-el term =      -2.25455939 Ry

     iteration # 10     ecut=    80.00 Ry     beta= 0.70
     Davidson diagonalization with overlap
     ethr =  5.97E-06,  avg # of iterations = 17.0

     negative rho (up, down):  1.729E-01 0.000E+00

     add environment contribution to local potential
     Polarization accuracy = 6.1E-26, # of iterations =  81

     total cpu time spent up to now is     1174.9 secs

     total energy              =    -413.88020546 Ry
     estimated scf accuracy    <       0.00342120 Ry
     electrostatic embedding   =      -0.06184504 Ry
     cavitation energy         =       0.09575042 Ry
     PV energy                 =      -0.11892750 Ry
     correction to one-el term =      -0.58745823 Ry

     iteration # 11     ecut=    80.00 Ry     beta= 0.70
     Davidson diagonalization with overlap
     c_bands:  1 eigenvalues not converged
     ethr =  2.44E-06,  avg # of iterations = 20.0

     negative rho (up, down):  1.054E-01 0.000E+00

     add environment contribution to local potential
     Polarization accuracy = 4.2E-26, # of iterations =  83

     total cpu time spent up to now is     1320.7 secs

     total energy              =    -413.88119361 Ry
     estimated scf accuracy    <       0.00142177 Ry
     electrostatic embedding   =      -0.05870410 Ry
     cavitation energy         =       0.09555171 Ry
     PV energy                 =      -0.11812822 Ry
     correction to one-el term =       0.21466738 Ry

     iteration # 12     ecut=    80.00 Ry     beta= 0.70
     Davidson diagonalization with overlap
     c_bands:  1 eigenvalues not converged
     ethr =  1.02E-06,  avg # of iterations = 20.0

     the potential shift due to the Gaussian-smeared nuclei is    -0.0164 ev

     total cpu time spent up to now is     1328.6 secs

     End of self-consistent calculation

          k = 0.0000 0.0000 0.0000 (****** PWs)   bands (ev):

   -26.9386 -26.9253 -25.9523 -23.6630 -21.5482 -21.4967 -21.2428 -19.8915
   -19.3141 -18.8619 -18.8413 -18.6869 -18.5828 -18.1714 -17.1557 -17.1429
   -16.6049 -15.8727 -15.2202 -15.0190 -14.9832 -14.8768 -14.0948 -13.8216
   -13.4225 -13.1353 -12.8163 -12.7347 -12.3017 -11.9627 -11.9090 -11.6964
   -11.5836 -11.4563 -11.4006 -11.3875 -10.9724 -10.8468 -10.7143 -10.5350
   -10.3352 -10.3135 -10.2561 -10.0832  -9.9542  -9.8329  -9.6906  -9.5046
    -9.3420  -9.2512  -9.1761  -8.7745  -8.7391  -8.6771  -8.5946  -8.4822
    -8.1737  -8.1038  -7.7888  -7.7377  -7.6931  -7.2813  -6.9736  -6.5479
    -6.2563  -5.9730  -5.7823  -5.7107  -5.4808  -5.4451  -3.0913  -2.4380
    -1.3675  -1.2648  -1.0952  -1.0671  -0.5478  -0.4565  -0.3240  -0.2788

     highest occupied, lowest unoccupied level (ev):    -5.4451   -3.0913

!    total energy              =    -413.88154532 Ry
     estimated scf accuracy    <       0.00055699 Ry
     electrostatic embedding   =      -0.05739056 Ry
     cavitation energy         =       0.09554768 Ry
     PV energy                 =      -0.11811217 Ry
     correction to one-el term =       0.70166730 Ry

     charge density inside the Wigner-Seitz cell:  140.00000000

     reference position (x0):        28.79818113   27.83919133   27.80369716 bohr

     Dipole moments (with respect to x0):
     Elect  -0.4711   0.5951   1.9329 au (Ha),  -1.1974   1.5127   4.9128 Debye
     Ionic  -0.0000  -0.0000   0.0000 au (Ha),  -0.0000  -0.0000   0.0000 Debye
     Total  -0.4711   0.5951   1.9329 au (Ha),  -1.1974   1.5127   4.9128 Debye

     Electrons quadrupole moment     -21324.73039794 a.u. (Ha)
          Ions quadrupole moment      21056.27106365 a.u. (Ha)
         Total quadrupole moment       -268.45933430 a.u. (Ha)

     *********    MAKOV-PAYNE CORRECTION    *********

     Makov-Payne correction with Madelung constant =   2.8373

     Makov-Payne correction     0.00000000 Ry =  0.000 eV (1st order, 1/a0)
                                0.00009913 Ry =  0.001 eV (2nd order, 1/a0^3)
                                0.00009913 Ry =  0.001 eV (total)

!    Total+Makov-Payne energy  =    -413.88144619 Ry
     Corrected vacuum level    =       0.08623421 eV

     convergence has been achieved in  12 iterations

     Using ACE for calculation of exact exchange

     EXX grid:  3113559 G-vectors     FFT dimensions: ( 240, 240, 240)
     ACE projected onto    80 (nbndproj) and applied to    80 (nbnd) bands

     EXX: now go back to refine exchange calculation

     total cpu time spent up to now is     1399.1 secs

     Self-consistent Calculation

     iteration #  1     ecut=    80.00 Ry     beta= 0.70
     Davidson diagonalization with overlap
     ethr =  1.02E-06,  avg # of iterations = 19.0

     add environment contribution to local potential
     Polarization accuracy = 6.0E-26, # of iterations =  85

     total cpu time spent up to now is     1550.8 secs

     total energy              =    -413.77488461 Ry
     estimated scf accuracy    <       0.00714325 Ry
     electrostatic embedding   =      -0.05739056 Ry
     cavitation energy         =       0.09554768 Ry
     PV energy                 =      -0.11811217 Ry
     correction to one-el term =       0.70166730 Ry

     iteration #  2     ecut=    80.00 Ry     beta= 0.70
     Davidson diagonalization with overlap
     ethr =  5.10E-06,  avg # of iterations =  3.0

     add environment contribution to local potential
     Polarization accuracy = 6.2E-26, # of iterations =  85

     total cpu time spent up to now is     1584.1 secs

     total energy              =    -413.77491820 Ry
     estimated scf accuracy    <       0.00143809 Ry
     electrostatic embedding   =      -0.06055186 Ry
     cavitation energy         =       0.09538533 Ry
     PV energy                 =      -0.11775660 Ry
     correction to one-el term =       1.01195542 Ry

     iteration #  3     ecut=    80.00 Ry     beta= 0.70
     Davidson diagonalization with overlap
     ethr =  1.03E-06,  avg # of iterations = 14.0

     the potential shift due to the Gaussian-smeared nuclei is    -0.0164 ev

     total cpu time spent up to now is     1593.0 secs

     End of self-consistent calculation

          k = 0.0000 0.0000 0.0000 (****** PWs)   bands (ev):

   -30.2586 -30.2420 -29.2623 -26.6723 -24.4050 -24.3649 -24.0555 -22.6296
   -21.9605 -21.4614 -21.4286 -21.2692 -21.1660 -20.7281 -19.5796 -19.5580
   -18.9492 -18.1571 -17.4095 -17.2133 -17.1778 -17.0474 -16.1810 -15.8342
   -15.3546 -15.0457 -14.7453 -14.6632 -14.1884 -13.7730 -13.7241 -13.5628
   -13.3935 -13.2762 -13.2524 -13.2361 -12.7273 -12.6206 -12.5182 -12.2226
   -12.0072 -11.9826 -11.9161 -11.6943 -11.6199 -11.4734 -11.2494 -11.0249
   -10.9054 -10.8079 -10.7647 -10.3513 -10.2860 -10.2222 -10.0775  -9.9690
    -9.6469  -9.5503  -9.3597  -9.2905  -9.0997  -8.5356  -8.2241  -7.5676
    -7.4287  -7.4019  -6.9442  -6.7305  -6.5168  -6.4411  -2.4051  -1.6521
    -0.4988  -0.3576  -0.2468  -0.2109  -0.1526  -0.0558   0.0377   0.0976

     highest occupied, lowest unoccupied level (ev):    -6.4411   -2.4051

!    total energy              =    -413.77505252 Ry
     estimated scf accuracy    <       0.00023053 Ry
     electrostatic embedding   =      -0.06230946 Ry
     cavitation energy         =       0.09521870 Ry
     PV energy                 =      -0.11734666 Ry
     correction to one-el term =       1.04766943 Ry

     charge density inside the Wigner-Seitz cell:  140.00000000

     reference position (x0):        28.79818113   27.83919133   27.80369716 bohr

     Dipole moments (with respect to x0):
     Elect  -0.4265   0.6103   1.9822 au (Ha),  -1.0841   1.5512   5.0382 Debye
     Ionic  -0.0000  -0.0000   0.0000 au (Ha),  -0.0000  -0.0000   0.0000 Debye
     Total  -0.4265   0.6103   1.9822 au (Ha),  -1.0841   1.5512   5.0382 Debye

     Electrons quadrupole moment     -21326.21490962 a.u. (Ha)
          Ions quadrupole moment      21056.27106365 a.u. (Ha)
         Total quadrupole moment       -269.94384597 a.u. (Ha)

     *********    MAKOV-PAYNE CORRECTION    *********

     Makov-Payne correction with Madelung constant =   2.8373

     Makov-Payne correction     0.00000000 Ry =  0.000 eV (1st order, 1/a0)
                                0.00010307 Ry =  0.001 eV (2nd order, 1/a0^3)
                                0.00010307 Ry =  0.001 eV (total)

!    Total+Makov-Payne energy  =    -413.77494945 Ry
     Corrected vacuum level    =       0.08672191 eV

     convergence has been achieved in   3 iterations

     Using ACE for calculation of exact exchange
     ACE projected onto    80 (nbndproj) and applied to    80 (nbnd) bands

     total energy              =    -413.77805480 Ry
     Harris-Foulkes estimate   =    -414.74146723 Ry
     est. exchange err (dexx)  =       0.00300228 Ry
     - averaged Fock potential =      56.98602112 Ry
     + Fock energy (ACE)       =     -28.51438271 Ry

     scf convergence threshold =          3.0E-04 Ry

     EXX: now go back to refine exchange calculation

     total cpu time spent up to now is     1661.7 secs

     Self-consistent Calculation

     iteration #  1     ecut=    80.00 Ry     beta= 0.70
     Davidson diagonalization with overlap
     c_bands:  1 eigenvalues not converged
     ethr =  1.03E-06,  avg # of iterations = 20.0

     the potential shift due to the Gaussian-smeared nuclei is    -0.0164 ev

     total cpu time spent up to now is     1672.5 secs

     End of self-consistent calculation

          k = 0.0000 0.0000 0.0000 (****** PWs)   bands (ev):

   -30.1377 -30.1268 -29.3189 -26.6963 -24.4005 -24.3444 -24.0678 -22.6539
   -21.9622 -21.4037 -21.3793 -21.3037 -21.1745 -20.7399 -19.5036 -19.4938
   -18.9612 -18.1671 -17.4276 -17.1970 -17.1519 -17.0545 -16.1784 -15.8152
   -15.3478 -15.0265 -14.7655 -14.6587 -14.1884 -13.7390 -13.6778 -13.5528
   -13.3909 -13.2603 -13.1530 -13.1414 -12.7372 -12.6440 -12.5494 -12.2481
   -12.0249 -11.9831 -11.9341 -11.7099 -11.5568 -11.4504 -11.2314 -10.9899
   -10.9307 -10.8199 -10.7703 -10.3169 -10.2653 -10.2109 -10.0857  -9.9641
    -9.6723  -9.5019  -9.2929  -9.2407  -9.0634  -8.5294  -8.2407  -7.6032
    -7.4857  -7.4193  -6.9507  -6.7293  -6.4772  -6.4227  -2.4002  -1.6324
    -0.5093  -0.3872  -0.1971  -0.1799  -0.1098   0.0056   0.1086   0.1673

     highest occupied, lowest unoccupied level (ev):    -6.4227   -2.4002

!    total energy              =    -413.77838382 Ry
     estimated scf accuracy    <       0.00028224 Ry
     electrostatic embedding   =      -0.06230946 Ry
     cavitation energy         =       0.09521870 Ry
     PV energy                 =      -0.11734666 Ry
     correction to one-el term =       1.04766943 Ry

     charge density inside the Wigner-Seitz cell:  140.00000000

     reference position (x0):        28.79818113   27.83919133   27.80369716 bohr

     Dipole moments (with respect to x0):
     Elect  -0.4464   0.5924   1.9614 au (Ha),  -1.1346   1.5058   4.9854 Debye
     Ionic  -0.0000  -0.0000   0.0000 au (Ha),  -0.0000  -0.0000   0.0000 Debye
     Total  -0.4464   0.5924   1.9614 au (Ha),  -1.1346   1.5058   4.9854 Debye

     Electrons quadrupole moment     -21323.95840695 a.u. (Ha)
          Ions quadrupole moment      21056.27106365 a.u. (Ha)
         Total quadrupole moment       -267.68734330 a.u. (Ha)

     *********    MAKOV-PAYNE CORRECTION    *********

     Makov-Payne correction with Madelung constant =   2.8373

     Makov-Payne correction     0.00000000 Ry =  0.000 eV (1st order, 1/a0)
                                0.00010109 Ry =  0.001 eV (2nd order, 1/a0^3)
                                0.00010109 Ry =  0.001 eV (total)

!    Total+Makov-Payne energy  =    -413.77828272 Ry
     Corrected vacuum level    =       0.08603443 eV

     convergence has been achieved in   1 iterations

     Using ACE for calculation of exact exchange
     ACE projected onto    80 (nbndproj) and applied to    80 (nbnd) bands

     total energy              =    -413.77849575 Ry
     Harris-Foulkes estimate   =    -414.74195986 Ry
     est. exchange err (dexx)  =       0.00011194 Ry
     - averaged Fock potential =      57.03387283 Ry
     + Fock energy (ACE)       =     -28.51960206 Ry

     scf convergence threshold =          1.1E-05 Ry

     EXX: now go back to refine exchange calculation

     total cpu time spent up to now is     1740.3 secs

     Self-consistent Calculation

     iteration #  1     ecut=    80.00 Ry     beta= 0.70
     Davidson diagonalization with overlap
     ethr =  1.03E-06,  avg # of iterations = 11.0

     add environment contribution to local potential
     Polarization accuracy = 6.1E-26, # of iterations =  86

     total cpu time spent up to now is     1899.0 secs

     total energy              =    -413.77784530 Ry
     estimated scf accuracy    <       0.00038708 Ry
     electrostatic embedding   =      -0.06289733 Ry
     cavitation energy         =       0.09514487 Ry
     PV energy                 =      -0.11726457 Ry
     correction to one-el term =       1.04902303 Ry

     iteration #  2     ecut=    80.00 Ry     beta= 0.70
     Davidson diagonalization with overlap
     ethr =  2.76E-07,  avg # of iterations =  6.0

     add environment contribution to local potential
     Polarization accuracy = 6.0E-26, # of iterations =  86

     total cpu time spent up to now is     1944.5 secs

     total energy              =    -413.77868080 Ry
     estimated scf accuracy    <       0.00015851 Ry
     electrostatic embedding   =      -0.06430525 Ry
     cavitation energy         =       0.09513158 Ry
     PV energy                 =      -0.11721198 Ry
     correction to one-el term =       1.11765088 Ry

     iteration #  3     ecut=    80.00 Ry     beta= 0.70
     Davidson diagonalization with overlap
     ethr =  1.13E-07,  avg # of iterations =  6.0

     add environment contribution to local potential
     Polarization accuracy = 6.3E-26, # of iterations =  86

     total cpu time spent up to now is     1978.6 secs

     total energy              =    -413.77868649 Ry
     estimated scf accuracy    <       0.00004826 Ry
     electrostatic embedding   =      -0.06456441 Ry
     cavitation energy         =       0.09512276 Ry
     PV energy                 =      -0.11720101 Ry
     correction to one-el term =       1.11074517 Ry

     iteration #  4     ecut=    80.00 Ry     beta= 0.70
     Davidson diagonalization with overlap
     ethr =  3.45E-08,  avg # of iterations =  1.0

     negative rho (up, down):  2.679E-06 0.000E+00

     add environment contribution to local potential
     Polarization accuracy = 5.9E-26, # of iterations =  86

     total cpu time spent up to now is     2189.5 secs

     total energy              =    -413.77868376 Ry
     estimated scf accuracy    <       0.00002417 Ry
     electrostatic embedding   =      -0.06472574 Ry
     cavitation energy         =       0.09510916 Ry
     PV energy                 =      -0.11717745 Ry
     correction to one-el term =       1.11014954 Ry

     iteration #  5     ecut=    80.00 Ry     beta= 0.70
     Davidson diagonalization with overlap
     ethr =  1.73E-08,  avg # of iterations =  2.0

     the potential shift due to the Gaussian-smeared nuclei is    -0.0164 ev

     total cpu time spent up to now is     2195.6 secs

     End of self-consistent calculation

          k = 0.0000 0.0000 0.0000 (****** PWs)   bands (ev):

   -30.2112 -30.1990 -29.2625 -26.6743 -24.3997 -24.3575 -24.0561 -22.6322
   -21.9591 -21.4416 -21.4119 -21.2744 -21.1670 -20.7285 -19.5541 -19.5360
   -18.9496 -18.1586 -17.4110 -17.2075 -17.1696 -17.0477 -16.1759 -15.8235
   -15.3448 -15.0326 -14.7442 -14.6594 -14.1843 -13.7594 -13.7091 -13.5540
   -13.3880 -13.2697 -13.2175 -13.2036 -12.7279 -12.6232 -12.5200 -12.2233
   -12.0081 -11.9817 -11.9217 -11.6856 -11.6014 -11.4658 -11.2386 -11.0096
   -10.9103 -10.8063 -10.7644 -10.3423 -10.2836 -10.2217 -10.0779  -9.9603
    -9.6518  -9.5288  -9.3409  -9.2787  -9.0858  -8.5265  -8.2224  -7.5656
    -7.4332  -7.4091  -6.9442  -6.7304  -6.5059  -6.4394  -2.3706  -1.6261
    -0.4875  -0.3543  -0.2241  -0.1922  -0.1278  -0.0174   0.0661   0.1111

     highest occupied, lowest unoccupied level (ev):    -6.4394   -2.3706

!    total energy              =    -413.77868587 Ry
     estimated scf accuracy    <       0.00001014 Ry
     electrostatic embedding   =      -0.06491764 Ry
     cavitation energy         =       0.09509351 Ry
     PV energy                 =      -0.11715052 Ry
     correction to one-el term =       1.11377366 Ry

     charge density inside the Wigner-Seitz cell:  140.00000000

     reference position (x0):        28.79818113   27.83919133   27.80369716 bohr

     Dipole moments (with respect to x0):
     Elect  -0.4331   0.6054   1.9727 au (Ha),  -1.1009   1.5387   5.0141 Debye
     Ionic  -0.0000  -0.0000   0.0000 au (Ha),  -0.0000  -0.0000   0.0000 Debye
     Total  -0.4331   0.6054   1.9727 au (Ha),  -1.1009   1.5387   5.0141 Debye

     Electrons quadrupole moment     -21325.62400575 a.u. (Ha)
          Ions quadrupole moment      21056.27106365 a.u. (Ha)
         Total quadrupole moment       -269.35294210 a.u. (Ha)

     *********    MAKOV-PAYNE CORRECTION    *********

     Makov-Payne correction with Madelung constant =   2.8373

     Makov-Payne correction     0.00000000 Ry =  0.000 eV (1st order, 1/a0)
                                0.00010220 Ry =  0.001 eV (2nd order, 1/a0^3)
                                0.00010220 Ry =  0.001 eV (total)

!    Total+Makov-Payne energy  =    -413.77858366 Ry
     Corrected vacuum level    =       0.08654678 eV

     convergence has been achieved in   5 iterations

     Using ACE for calculation of exact exchange
     ACE projected onto    80 (nbndproj) and applied to    80 (nbnd) bands

     total energy              =    -413.77870801 Ry
     Harris-Foulkes estimate   =    -414.80551241 Ry
     est. exchange err (dexx)  =       0.00002214 Ry
     - averaged Fock potential =      57.04168291 Ry
     + Fock energy (ACE)       =     -28.52210299 Ry

     scf convergence threshold =          2.2E-06 Ry

     EXX: now go back to refine exchange calculation

     total cpu time spent up to now is     2264.8 secs

     Self-consistent Calculation

     iteration #  1     ecut=    80.00 Ry     beta= 0.70
     Davidson diagonalization with overlap
     ethr =  1.73E-08,  avg # of iterations =  3.0

     add environment contribution to local potential
     Polarization accuracy = 6.7E-26, # of iterations =  86

     total cpu time spent up to now is     2425.8 secs

     total energy              =    -413.77871250 Ry
     estimated scf accuracy    <       0.00000534 Ry
     electrostatic embedding   =      -0.06491764 Ry
     cavitation energy         =       0.09509351 Ry
     PV energy                 =      -0.11715052 Ry
     correction to one-el term =       1.11377366 Ry

     iteration #  2     ecut=    80.00 Ry     beta= 0.70
     Davidson diagonalization with overlap
     ethr =  3.82E-09,  avg # of iterations =  3.0

     add environment contribution to local potential
     Polarization accuracy = 6.7E-26, # of iterations =  86

     total cpu time spent up to now is     2497.1 secs

     total energy              =    -413.77872065 Ry
     estimated scf accuracy    <       0.00000440 Ry
     electrostatic embedding   =      -0.06455827 Ry
     cavitation energy         =       0.09510333 Ry
     PV energy                 =      -0.11716483 Ry
     correction to one-el term =       1.10689361 Ry

     iteration #  3     ecut=    80.00 Ry     beta= 0.70
     Davidson diagonalization with overlap
     ethr =  3.14E-09,  avg # of iterations =  1.0

     add environment contribution to local potential
     Polarization accuracy = 7.1E-26, # of iterations =  86

     total cpu time spent up to now is     2542.3 secs

     total energy              =    -413.77871988 Ry
     estimated scf accuracy    <       0.00000259 Ry
     electrostatic embedding   =      -0.06457078 Ry
     cavitation energy         =       0.09510319 Ry
     PV energy                 =      -0.11716437 Ry
     correction to one-el term =       1.10636358 Ry

     iteration #  4     ecut=    80.00 Ry     beta= 0.70
     Davidson diagonalization with overlap
     ethr =  1.85E-09,  avg # of iterations =  2.0

     the potential shift due to the Gaussian-smeared nuclei is    -0.0164 ev

     total cpu time spent up to now is     2548.3 secs

     End of self-consistent calculation

          k = 0.0000 0.0000 0.0000 (****** PWs)   bands (ev):

   -30.2074 -30.1943 -29.2710 -26.6770 -24.3999 -24.3562 -24.0585 -22.6341
   -21.9598 -21.4388 -21.4095 -21.2783 -21.1693 -20.7300 -19.5509 -19.5328
   -18.9517 -18.1600 -17.4134 -17.2064 -17.1677 -17.0489 -16.1768 -15.8234
   -15.3454 -15.0329 -14.7457 -14.6592 -14.1855 -13.7574 -13.7062 -13.5542
   -13.3888 -13.2696 -13.2146 -13.2001 -12.7286 -12.6259 -12.5235 -12.2263
   -12.0088 -11.9816 -11.9239 -11.6883 -11.5988 -11.4653 -11.2381 -11.0084
   -10.9135 -10.8076 -10.7668 -10.3400 -10.2822 -10.2207 -10.0785  -9.9613
    -9.6548  -9.5269  -9.3380  -9.2760  -9.0846  -8.5264  -8.2243  -7.5693
    -7.4395  -7.4119  -6.9450  -6.7318  -6.5052  -6.4398  -2.3716  -1.6250
    -0.4885  -0.3574  -0.2216  -0.1907  -0.1124  -0.0092   0.0918   0.1416

     highest occupied, lowest unoccupied level (ev):    -6.4398   -2.3716

!    total energy              =    -413.77871982 Ry
     estimated scf accuracy    <       0.00000073 Ry
     electrostatic embedding   =      -0.06460369 Ry
     cavitation energy         =       0.09510188 Ry
     PV energy                 =      -0.11716119 Ry
     correction to one-el term =       1.10565853 Ry

     charge density inside the Wigner-Seitz cell:  140.00000000

     reference position (x0):        28.79818113   27.83919133   27.80369716 bohr

     Dipole moments (with respect to x0):
     Elect  -0.4300   0.6084   1.9763 au (Ha),  -1.0930   1.5464   5.0231 Debye
     Ionic  -0.0000  -0.0000   0.0000 au (Ha),  -0.0000  -0.0000   0.0000 Debye
     Total  -0.4300   0.6084   1.9763 au (Ha),  -1.0930   1.5464   5.0231 Debye

     Electrons quadrupole moment     -21325.97202486 a.u. (Ha)
          Ions quadrupole moment      21056.27106365 a.u. (Ha)
         Total quadrupole moment       -269.70096121 a.u. (Ha)

     *********    MAKOV-PAYNE CORRECTION    *********

     Makov-Payne correction with Madelung constant =   2.8373

     Makov-Payne correction     0.00000000 Ry =  0.000 eV (1st order, 1/a0)
                                0.00010255 Ry =  0.001 eV (2nd order, 1/a0^3)
                                0.00010255 Ry =  0.001 eV (total)

!    Total+Makov-Payne energy  =    -413.77861727 Ry
     Corrected vacuum level    =       0.08665282 eV

     convergence has been achieved in   4 iterations

     Using ACE for calculation of exact exchange
     ACE projected onto    80 (nbndproj) and applied to    80 (nbnd) bands

     total energy              =    -413.77872099 Ry
     Harris-Foulkes estimate   =    -414.79771704 Ry
     est. exchange err (dexx)  =       0.00000117 Ry
     - averaged Fock potential =      57.04489805 Ry
     + Fock energy (ACE)       =     -28.52279624 Ry

     scf convergence threshold =          1.0E-06 Ry

     EXX: now go back to refine exchange calculation

     total cpu time spent up to now is     2616.4 secs

     Self-consistent Calculation

     iteration #  1     ecut=    80.00 Ry     beta= 0.70
     Davidson diagonalization with overlap
     ethr =  1.85E-09,  avg # of iterations =  3.0

     the potential shift due to the Gaussian-smeared nuclei is    -0.0164 ev

     total cpu time spent up to now is     2624.6 secs

     End of self-consistent calculation

          k = 0.0000 0.0000 0.0000 (****** PWs)   bands (ev):

   -30.2004 -30.1862 -29.2761 -26.6777 -24.3992 -24.3543 -24.0587 -22.6357
   -21.9595 -21.4358 -21.4061 -21.2792 -21.1694 -20.7302 -19.5472 -19.5289
   -18.9524 -18.1602 -17.4138 -17.2049 -17.1661 -17.0486 -16.1765 -15.8222
   -15.3446 -15.0318 -14.7469 -14.6587 -14.1853 -13.7553 -13.7038 -13.5537
   -13.3882 -13.2686 -13.2094 -13.1941 -12.7289 -12.6269 -12.5252 -12.2278
   -12.0087 -11.9811 -11.9242 -11.6899 -11.5953 -11.4637 -11.2372 -11.0062
   -10.9143 -10.8080 -10.7671 -10.3382 -10.2809 -10.2195 -10.0787  -9.9611
    -9.6555  -9.5241  -9.3338  -9.2719  -9.0827  -8.5262  -8.2249  -7.5707
    -7.4433  -7.4126  -6.9449  -6.7312  -6.5028  -6.4384  -2.3732  -1.6248
    -0.4892  -0.3586  -0.2196  -0.1889  -0.1023  -0.0005   0.1119   0.1658

     highest occupied, lowest unoccupied level (ev):    -6.4384   -2.3732

!    total energy              =    -413.77872084 Ry
     estimated scf accuracy    <       0.00000086 Ry
     electrostatic embedding   =      -0.06460369 Ry
     cavitation energy         =       0.09510188 Ry
     PV energy                 =      -0.11716119 Ry
     correction to one-el term =       1.10565853 Ry

     charge density inside the Wigner-Seitz cell:  140.00000000

     reference position (x0):        28.79818113   27.83919133   27.80369716 bohr

     Dipole moments (with respect to x0):
     Elect  -0.4308   0.6065   1.9741 au (Ha),  -1.0949   1.5416   5.0176 Debye
     Ionic  -0.0000  -0.0000   0.0000 au (Ha),  -0.0000  -0.0000   0.0000 Debye
     Total  -0.4308   0.6065   1.9741 au (Ha),  -1.0949   1.5416   5.0176 Debye

     Electrons quadrupole moment     -21325.84839930 a.u. (Ha)
          Ions quadrupole moment      21056.27106365 a.u. (Ha)
         Total quadrupole moment       -269.57733565 a.u. (Ha)

     *********    MAKOV-PAYNE CORRECTION    *********

     Makov-Payne correction with Madelung constant =   2.8373

     Makov-Payne correction     0.00000000 Ry =  0.000 eV (1st order, 1/a0)
                                0.00010231 Ry =  0.001 eV (2nd order, 1/a0^3)
                                0.00010231 Ry =  0.001 eV (total)

!    Total+Makov-Payne energy  =    -413.77861853 Ry
     Corrected vacuum level    =       0.08661527 eV

     convergence has been achieved in   1 iterations

     Using ACE for calculation of exact exchange
     ACE projected onto    80 (nbndproj) and applied to    80 (nbnd) bands

!!   total energy              =    -413.77872099 Ry
     Harris-Foulkes estimate   =    -414.79771732 Ry
     est. exchange err (dexx)  =       0.00000015 Ry
     - averaged Fock potential =      57.04552446 Ry
     + Fock energy (ACE)       =     -28.52272837 Ry

     charge density inside the Wigner-Seitz cell:  140.00000000

     reference position (x0):        28.79818113   27.83919133   27.80369716 bohr

     Dipole moments (with respect to x0):
     Elect  -0.4308   0.6065   1.9741 au (Ha),  -1.0949   1.5416   5.0176 Debye
     Ionic  -0.0000  -0.0000   0.0000 au (Ha),  -0.0000  -0.0000   0.0000 Debye
     Total  -0.4308   0.6065   1.9741 au (Ha),  -1.0949   1.5416   5.0176 Debye

     Electrons quadrupole moment     -21325.84839930 a.u. (Ha)
          Ions quadrupole moment      21056.27106365 a.u. (Ha)
         Total quadrupole moment       -269.57733565 a.u. (Ha)

     *********    MAKOV-PAYNE CORRECTION    *********

     Makov-Payne correction with Madelung constant =   2.8373

     Makov-Payne correction     0.00000000 Ry =  0.000 eV (1st order, 1/a0)
                                0.00010231 Ry =  0.001 eV (2nd order, 1/a0^3)
                                0.00010231 Ry =  0.001 eV (total)

!    Total+Makov-Payne energy  =    -413.77861868 Ry
     Corrected vacuum level    =       0.08661527 eV

     EXX self-consistency reached

     Writing all to output data dir ./outdir/4amp15iso.save/

     init_run     :     13.58s CPU     14.38s WALL (       1 calls)
     electrons    :   2048.96s CPU   2270.51s WALL (       6 calls)

     Called by init_run:
     aceinit0     :      0.00s CPU      0.00s WALL (       1 calls)
     wfcinit      :      1.32s CPU      1.62s WALL (       1 calls)
     potinit      :      1.88s CPU      2.08s WALL (       1 calls)
     hinit0       :      2.96s CPU      2.98s WALL (       1 calls)

     Called by electrons:
     c_bands      :    132.80s CPU    152.52s WALL (      26 calls)
     sum_band     :     19.34s CPU     21.38s WALL (      26 calls)
     v_of_rho     :      8.10s CPU      9.16s WALL (      28 calls)
     mix_rho      :   1655.76s CPU   1838.09s WALL (      26 calls)

     Called by c_bands:
     init_us_2    :      1.75s CPU      1.80s WALL (      53 calls)
     init_us_2:cp :      1.75s CPU      1.80s WALL (      53 calls)
     regterg      :    131.10s CPU    150.76s WALL (      26 calls)

     Called by *egterg:
     rdiaghg      :      1.85s CPU      1.87s WALL (     269 calls)
     h_psi        :    105.26s CPU    124.54s WALL (     275 calls)
     g_psi        :      0.24s CPU      0.25s WALL (     248 calls)

     Called by h_psi:
     h_psi:calbec :      9.46s CPU      9.49s WALL (     275 calls)
     vloc_psi     :     81.06s CPU    100.10s WALL (     275 calls)
     add_vuspsi   :      8.67s CPU      8.69s WALL (     275 calls)

     General routines
     calbec       :     11.70s CPU     11.76s WALL (     411 calls)
     fft          :      4.98s CPU      6.04s WALL (     216 calls)
     ffts         :    831.59s CPU   1010.64s WALL (   38426 calls)
     fftw         :     69.64s CPU     89.88s WALL (    7462 calls)
     fftc         :    183.66s CPU    308.24s WALL (   33600 calls)
     fftcw        :      4.03s CPU      5.16s WALL (     960 calls)

     Parallel routines

     EXX routines
     exx_grid     :      0.00s CPU      0.00s WALL (       1 calls)
     exxinit      :      2.11s CPU      2.48s WALL (       6 calls)
     vexx         :    274.27s CPU    402.53s WALL (       6 calls)
     matcalc      :      2.25s CPU      2.28s WALL (     136 calls)
     aceupdate    :      0.23s CPU      0.26s WALL (       6 calls)
     vexxace      :      6.34s CPU      6.60s WALL (     119 calls)
     aceinit      :    274.74s CPU    403.03s WALL (       6 calls)

     Environ routines

     PWSCF        :  39m 2.74s CPU  44m58.67s WALL


   This run was terminated on:  16:29:21  26Feb2024

=------------------------------------------------------------------------------=
   JOB DONE.
=------------------------------------------------------------------------------=
