
     Program PWSCF v.7.2 starts on 26Feb2024 at 11:28:49

     This program is part of the open-source Quantum ESPRESSO suite
     for quantum simulation of materials; please cite
         "P. Giannozzi et al., J. Phys.:Condens. Matter 21 395502 (2009);
         "P. Giannozzi et al., J. Phys.:Condens. Matter 29 465901 (2017);
         "P. Giannozzi et al., J. Chem. Phys. 152 154105 (2020);
          URL http://www.quantum-espresso.org",
     in publications or presentations arising from this work. More details at
     http://www.quantum-espresso.org/quote

     Parallel version (MPI), running on   120 processors

     MPI processes distributed on     1 nodes
     451291 MiB available memory on the printing compute node when the environment starts

     Reading input from 4amp15_relax.in

     Current dimensions of program PWSCF are:
     Max number of different atomic species (ntypx) = 10
     Max number of k-points (npk) =  40000
     Max angular momentum in pseudopotentials (lmaxx) =  4

     IMPORTANT: XC functional enforced from input :
     Exchange-correlation= PBE
                           (   1   4   3   4   0   0   0)
     Any further DFT definition will be discarded
     Please, verify this is what you really want


     gamma-point specific algorithms are used
     Message from routine setup:
     using ibrav=0 with symmetry is DISCOURAGED, use correct ibrav instead

     R & G space division:  proc/nbgrp/npool/nimage =     120
     Subspace diagonalization in iterative solution of the eigenvalue problem:
     one sub-group per band group will be used
     custom distributed-memory algorithm (size of sub-group:  3*  3 procs)


     Parallelization info
     --------------------
     sticks:   dense  smooth     PW     G-vecs:    dense   smooth      PW
     Min         130      51     11                25042     6320     776
     Max         132      54     14                25058     6350     818
     Sum       15643    6271   1569              3006229   760417   95069

     Using Slab Decomposition



     bravais-lattice index     =            0
     lattice parameter (alat)  =      30.7969  a.u.
     unit-cell volume          =   12112.4072 (a.u.)^3
     number of atoms/cell      =          196
     number of atomic types    =            4
     number of electrons       =       560.00
     number of Kohn-Sham states=          280
     kinetic-energy cutoff     =      60.0000  Ry
     charge density cutoff     =     600.0000  Ry
     scf convergence threshold =      1.0E-10
     mixing beta               =       0.7000
     number of iterations used =            8  local-TF  mixing
     energy convergence thresh.=      1.0E-04
     force convergence thresh. =      1.0E-03
     Exchange-correlation= PBE
                           (   1   4   3   4   0   0   0)
     nstep                     =           50


     celldm(1)=  30.796867  celldm(2)=   0.000000  celldm(3)=   0.000000
     celldm(4)=   0.000000  celldm(5)=   0.000000  celldm(6)=   0.000000

     crystal axes: (cart. coord. in units of alat)
               a(1) = (   1.000000   0.000000   0.000000 )
               a(2) = (   0.000000   0.345487   0.000000 )
               a(3) = (  -0.937552   0.000000   1.200271 )

     reciprocal axes: (cart. coord. in units 2 pi/alat)
               b(1) = (  1.000000 -0.000000  0.781117 )
               b(2) = (  0.000000  2.894466 -0.000000 )
               b(3) = (  0.000000  0.000000  0.833145 )


     PseudoPot. # 1 for O  read from file:
     /home/cyk/q-e-qe-7.2/pp/O.pbe-n-rrkjus_psl.1.0.0.UPF
     MD5 check sum: 91400c9766925bcf19f520983a725ff0
     Pseudo is Ultrasoft + core correction, Zval =  6.0
     Generated using &quot;atomic&quot; code by A. Dal Corso  v.6.3MaX
     Using radial grid of 1095 points,  4 beta functions with:
                l(1) =   0
                l(2) =   0
                l(3) =   1
                l(4) =   1
     Q(r) pseudized with 0 coefficients


     PseudoPot. # 2 for N  read from file:
     /home/cyk/q-e-qe-7.2/pp/N.pbe-n-rrkjus_psl.1.0.0.UPF
     MD5 check sum: ada94e3ed05223de5319d0572dc76806
     Pseudo is Ultrasoft + core correction, Zval =  5.0
     Generated using &quot;atomic&quot; code by A. Dal Corso  v.6.3MaX
     Using radial grid of 1085 points,  4 beta functions with:
                l(1) =   0
                l(2) =   0
                l(3) =   1
                l(4) =   1
     Q(r) pseudized with 0 coefficients


     PseudoPot. # 3 for C  read from file:
     /home/cyk/q-e-qe-7.2/pp/C.pbe-n-rrkjus_psl.1.0.0.UPF
     MD5 check sum: 1fdd950c42eb37d8afe3dd2f8d12311e
     Pseudo is Ultrasoft + core correction, Zval =  4.0
     Generated using &quot;atomic&quot; code by A. Dal Corso  v.6.3MaX
     Using radial grid of 1073 points,  4 beta functions with:
                l(1) =   0
                l(2) =   0
                l(3) =   1
                l(4) =   1
     Q(r) pseudized with 0 coefficients


     PseudoPot. # 4 for H  read from file:
     /home/cyk/q-e-qe-7.2/pp/H.pbe-rrkjus_psl.1.0.0.UPF
     MD5 check sum: 3f4114867bd07edc7f1424d066fc1888
     Pseudo is Ultrasoft, Zval =  1.0
     Generated using &quot;atomic&quot; code by A. Dal Corso  v.6.3MaX
     Using radial grid of  929 points,  2 beta functions with:
                l(1) =   0
                l(2) =   0
     Q(r) pseudized with 0 coefficients


     atomic species   valence    mass     pseudopotential
        O              6.00    16.00000     O ( 1.00)
        N              5.00    14.00000     N ( 1.00)
        C              4.00    12.00000     C ( 1.00)
        H              1.00     1.00000     H ( 1.00)

      4 Sym. Ops., with inversion, found ( 2 have fractional translation)



   Cartesian axes

     site n.     atom                  positions (alat units)
         1           O   tau(   1) = (  -0.2800852   0.2365203   0.5805470  )
         2           O   tau(   2) = (   0.0031429   0.2647121   0.6679628  )
         3           O   tau(   3) = (   0.2341418   0.3276943   0.7379026  )
         4           N   tau(   4) = (  -0.4499559   0.1674920   0.7842690  )
         5           C   tau(   5) = (  -0.1110941   0.0945252   0.8006407  )
         6           H   tau(   6) = (  -0.1381922   0.1348750   0.8305647  )
         7           C   tau(   7) = (  -0.0585801   0.0439114   0.8383892  )
         8           H   tau(   8) = (  -0.0493887   0.0499135   0.8943855  )
         9           C   tau(   9) = (  -0.0184814   0.3293872   0.7966558  )
        10           H   tau(  10) = (   0.0179337   0.2946250   0.8235863  )
        11           C   tau(  11) = (  -0.0322373   0.3211992   0.7158176  )
        12           C   tau(  12) = (  -0.0854918   0.0268443   0.6770968  )
        13           H   tau(  13) = (  -0.0949550   0.0203381   0.6212002  )
        14           C   tau(  14) = (  -0.1251080   0.0870972   0.7184942  )
        15           C   tau(  15) = (  -0.1793886   0.1400949   0.6742762  )
        16           H   tau(  16) = (  -0.1880635   0.1273126   0.6193470  )
        17           C   tau(  17) = (  -0.2175367   0.2036300   0.7019904  )
        18           H   tau(  18) = (  -0.2098992   0.2186514   0.7565092  )
        19           C   tau(  19) = (  -0.2715626   0.2521363   0.6517111  )
        20           C   tau(  20) = (  -0.3164554   0.3199900   0.6879833  )
        21           C   tau(  21) = (  -0.3672215   0.0196582   0.6392403  )
        22           H   tau(  22) = (  -0.3715580   0.0065947   0.5838562  )
        23           C   tau(  23) = (  -0.4114353   0.0828823   0.6693431  )
        24           H   tau(  24) = (  -0.4450277   0.1131701   0.6345844  )
        25           C   tau(  25) = (  -0.4069638   0.1024023   0.7500973  )
        26           C   tau(  26) = (  -0.3551784   0.0592510   0.7984442  )
        27           H   tau(  27) = (  -0.3494910   0.0735970   0.8533818  )
        28           C   tau(  28) = (  -0.3115364   0.3413065   0.7683054  )
        29           H   tau(  29) = (  -0.2775065   0.3116243   0.8031697  )
        30           C   tau(  30) = (  -0.5216017   0.1806551   0.7603236  )
        31           H   tau(  31) = (  -0.5445156   0.1447518   0.7223650  )
        32           C   tau(  32) = (  -0.5701342   0.2484742   0.7885300  )
        33           C   tau(  33) = (   0.3547986   0.2585969   0.7545623  )
        34           H   tau(  34) = (   0.3357555   0.2208884   0.7161788  )
        35           C   tau(  35) = (   0.3070882   0.3233066   0.7760832  )
        36           C   tau(  36) = (   0.3336764   0.0316466   0.8329400  )
        37           H   tau(  37) = (   0.3009269   0.0757404   0.8484991  )
        38           C   tau(  38) = (  -0.5912813   0.0206947   0.8671957  )
        39           H   tau(  39) = (  -0.5729004   0.0575554   0.9066930  )
        40           C   tau(  40) = (  -0.5428585   0.3029920   0.8451468  )
        41           H   tau(  41) = (  -0.4911264   0.2967891   0.8685196  )
        42           C   tau(  42) = (   0.0583258   0.2095724   0.7035748  )
        43           H   tau(  43) = (   0.0793245   0.1732734   0.6621691  )
        44           H   tau(  44) = (   0.0307581   0.1781496   0.7450586  )
        45           H   tau(  45) = (   0.1029453   0.2393782   0.7279379  )
        46           C   tau(  46) = (   0.1897708   0.0548288   0.7465325  )
        47           H   tau(  47) = (   0.1420491   0.0529010   0.7120379  )
        48           H   tau(  48) = (   0.2235316   0.1004576   0.7308078  )
        49           H   tau(  49) = (   0.1731438   0.0611301   0.8026956  )
        50           O   tau(  50) = (   0.8113092   0.0637769   0.0195884  )
        51           O   tau(  51) = (  -0.4094709   0.0919686   1.1324436  )
        52           O   tau(  52) = (  -0.6404698   0.1549509   1.0625038  )
        53           N   tau(  53) = (   0.0436278   0.3402355   1.0161374  )
        54           C   tau(  54) = (  -0.2952339   0.2672687   0.9997657  )
        55           H   tau(  55) = (  -0.2681358   0.3076184   0.9698417  )
        56           C   tau(  56) = (  -0.3477479   0.2166548   0.9620171  )
        57           H   tau(  57) = (  -0.3569393   0.2226570   0.9060209  )
        58           C   tau(  58) = (  -0.3878466   0.1566438   1.0037506  )
        59           H   tau(  59) = (  -0.4242618   0.1218816   0.9768201  )
        60           C   tau(  60) = (  -0.3740908   0.1484557   1.0845888  )
        61           C   tau(  61) = (  -0.3208362   0.1995878   1.1233095  )
        62           H   tau(  62) = (  -0.3113730   0.1930816   1.1792062  )
        63           C   tau(  63) = (  -0.2812200   0.2598407   1.0819122  )
        64           C   tau(  64) = (  -0.2269394   0.3128384   1.1261302  )
        65           H   tau(  65) = (  -0.2182646   0.3000561   1.1810594  )
        66           C   tau(  66) = (  -0.1887913   0.0308865   1.0984159  )
        67           H   tau(  67) = (  -0.1964289   0.0459080   1.0438972  )
        68           C   tau(  68) = (  -0.1347654   0.0793929   1.1486953  )
        69           C   tau(  69) = (  -0.0898726   0.1472465   1.1124231  )
        70           C   tau(  70) = (  -0.0391066   0.1924017   1.1611661  )
        71           H   tau(  71) = (   0.9027820   0.1793381   0.0162793  )
        72           C   tau(  72) = (   0.0051072   0.2556258   1.1310633  )
        73           H   tau(  73) = (   0.0386997   0.2859136   1.1658219  )
        74           C   tau(  74) = (   0.0006357   0.2751458   1.0503091  )
        75           C   tau(  75) = (  -0.0511497   0.2319945   1.0019622  )
        76           H   tau(  76) = (  -0.0568370   0.2463405   0.9470246  )
        77           C   tau(  77) = (  -0.0947916   0.1685631   1.0321010  )
        78           H   tau(  78) = (  -0.1288215   0.1388809   0.9972367  )
        79           C   tau(  79) = (   0.1152737   0.0079116   1.0400828  )
        80           H   tau(  80) = (   0.1381876   0.3174952   1.0780413  )
        81           C   tau(  81) = (   0.1638062   0.0757307   1.0118764  )
        82           C   tau(  82) = (  -0.7611266   0.0858535   1.0458441  )
        83           H   tau(  83) = (  -0.7420835   0.0481450   1.0842275  )
        84           C   tau(  84) = (  -0.7134163   0.1505632   1.0243232  )
        85           C   tau(  85) = (  -0.7400044   0.2043900   0.9674664  )
        86           H   tau(  86) = (  -0.7072549   0.2484839   0.9519073  )
        87           C   tau(  87) = (   0.1849533   0.1934381   0.9332106  )
        88           H   tau(  88) = (   0.1665723   0.2302988   0.8937133  )
        89           C   tau(  89) = (   0.1365305   0.1302486   0.9552596  )
        90           H   tau(  90) = (   0.0847984   0.1240457   0.9318867  )
        91           C   tau(  91) = (  -0.4646538   0.0368289   1.0968316  )
        92           H   tau(  92) = (  -0.4856525   0.0005300   1.1382373  )
        93           H   tau(  93) = (  -0.4370861   0.0054062   1.0553478  )
        94           H   tau(  94) = (  -0.5092733   0.0666347   1.0724685  )
        95           C   tau(  95) = (  -0.5960988   0.2275722   1.0538739  )
        96           H   tau(  96) = (  -0.5483771   0.2256444   1.0883685  )
        97           H   tau(  97) = (  -0.6298597   0.2732010   1.0695986  )
        98           H   tau(  98) = (  -0.5794719   0.2338736   0.9977108  )
        99           O   tau(  99) = (   0.3425331   0.1089666   0.6197239  )
       100           O   tau( 100) = (   0.0593051   0.0807748   0.5323081  )
       101           O   tau( 101) = (  -0.1716938   0.0177926   0.4623684  )
       102           N   tau( 102) = (   0.5124038   0.1779949   0.4160019  )
       103           C   tau( 103) = (   0.1735421   0.2509617   0.3996302  )
       104           H   tau( 104) = (   0.2006402   0.2106119   0.3697062  )
       105           C   tau( 105) = (   0.1210281   0.3015755   0.3618817  )
       106           H   tau( 106) = (   0.1118367   0.2955734   0.3058854  )
       107           C   tau( 107) = (   0.0809294   0.0160997   0.4036151  )
       108           H   tau( 108) = (   0.0445142   0.0508619   0.3766846  )
       109           C   tau( 109) = (   0.0946853   0.0242877   0.4844533  )
       110           C   tau( 110) = (   0.1479398   0.3186426   0.5231741  )
       111           H   tau( 111) = (   0.1574030   0.3251488   0.5790707  )
       112           C   tau( 112) = (   0.1875560   0.2583897   0.4817767  )
       113           C   tau( 113) = (   0.2418366   0.2053920   0.5259947  )
       114           H   tau( 114) = (   0.2505115   0.2181743   0.5809239  )
       115           C   tau( 115) = (   0.2799847   0.1418569   0.4982805  )
       116           H   tau( 116) = (   0.2723471   0.1268355   0.4437618  )
       117           C   tau( 117) = (   0.3340106   0.0933506   0.5485598  )
       118           C   tau( 118) = (   0.3789034   0.0254969   0.5122876  )
       119           C   tau( 119) = (   0.4296694   0.3258287   0.5610306  )
       120           H   tau( 120) = (   0.4340060   0.3388922   0.6164147  )
       121           C   tau( 121) = (   0.4738832   0.2626046   0.5309278  )
       122           H   tau( 122) = (   0.5074757   0.2323168   0.5656865  )
       123           C   tau( 123) = (   0.4694117   0.2430846   0.4501736  )
       124           C   tau( 124) = (   0.4176263   0.2862359   0.4018267  )
       125           H   tau( 125) = (   0.4119390   0.2718899   0.3468891  )
       126           C   tau( 126) = (   0.3739844   0.0041804   0.4319655  )
       127           H   tau( 127) = (   0.3399545   0.0338626   0.3971012  )
       128           C   tau( 128) = (   0.5840497   0.1648318   0.4399473  )
       129           H   tau( 129) = (   0.6069636   0.2007351   0.4779059  )
       130           C   tau( 130) = (   0.6325822   0.0970127   0.4117409  )
       131           C   tau( 131) = (  -0.2923506   0.0868900   0.4457086  )
       132           H   tau( 132) = (  -0.2733075   0.1245985   0.4840921  )
       133           C   tau( 133) = (  -0.2446403   0.0221803   0.4241877  )
       134           C   tau( 134) = (  -0.2712284   0.3138403   0.3673309  )
       135           H   tau( 135) = (  -0.2384789   0.2697465   0.3517718  )
       136           C   tau( 136) = (   0.6537293   0.3247922   0.3330752  )
       137           H   tau( 137) = (   0.6353483   0.2879315   0.2935779  )
       138           C   tau( 138) = (   0.6053065   0.0424949   0.3551242  )
       139           H   tau( 139) = (   0.5535744   0.0486978   0.3317513  )
       140           C   tau( 140) = (   0.0041222   0.1359145   0.4966961  )
       141           H   tau( 141) = (  -0.0168765   0.1722135   0.5381019  )
       142           H   tau( 142) = (   0.0316899   0.1673373   0.4552123  )
       143           H   tau( 143) = (  -0.0404973   0.1061087   0.4723330  )
       144           C   tau( 144) = (  -0.1273228   0.2906581   0.4537384  )
       145           H   tau( 145) = (  -0.0796011   0.2925859   0.4882330  )
       146           H   tau( 146) = (  -0.1610837   0.2450293   0.4694632  )
       147           H   tau( 147) = (  -0.1106959   0.2843568   0.3975753  )
       148           O   tau( 148) = (  -0.7488612   0.2817100   1.1806825  )
       149           O   tau( 149) = (   0.4719189   0.2535183   0.0678273  )
       150           O   tau( 150) = (   0.7029178   0.1905360   0.1377671  )
       151           N   tau( 151) = (   0.0188201   0.0052514   0.1841336  )
       152           C   tau( 152) = (   0.3576819   0.0782182   0.2005053  )
       153           H   tau( 153) = (   0.3305838   0.0378685   0.2304292  )
       154           C   tau( 154) = (   0.4101959   0.1288321   0.2382538  )
       155           H   tau( 155) = (   0.4193873   0.1228299   0.2942500  )
       156           C   tau( 156) = (   0.4502946   0.1888431   0.1965204  )
       157           H   tau( 157) = (   0.4867098   0.2236053   0.2234508  )
       158           C   tau( 158) = (   0.4365387   0.1970312   0.1156821  )
       159           C   tau( 159) = (   0.3832842   0.1458991   0.0769614  )
       160           H   tau( 160) = (   0.3738210   0.1524053   0.0210648  )
       161           C   tau( 161) = (   0.3436680   0.0856462   0.1183587  )
       162           C   tau( 162) = (   0.2893874   0.0326485   0.0741407  )
       163           H   tau( 163) = (   0.2807125   0.0454308   0.0192115  )
       164           C   tau( 164) = (   0.2512393   0.3146004   0.1018550  )
       165           H   tau( 165) = (   0.2588768   0.2995789   0.1563737  )
       166           C   tau( 166) = (   0.1972134   0.2660940   0.0515756  )
       167           C   tau( 167) = (   0.1523206   0.1982404   0.0878478  )
       168           C   tau( 168) = (   0.1015546   0.1530852   0.0391048  )
       169           H   tau( 169) = (  -0.8403340   0.1661488   1.1839916  )
       170           C   tau( 170) = (   0.0573408   0.0898611   0.0692076  )
       171           H   tau( 171) = (   0.0237483   0.0595733   0.0344490  )
       172           C   tau( 172) = (   0.0618123   0.0703411   0.1499618  )
       173           C   tau( 173) = (   0.1135977   0.1134924   0.1983088  )
       174           H   tau( 174) = (   0.1192850   0.0991464   0.2532464  )
       175           C   tau( 175) = (   0.1572396   0.1769238   0.1681700  )
       176           H   tau( 176) = (   0.1912695   0.2066060   0.2030342  )
       177           C   tau( 177) = (  -0.0528257   0.3375752   0.1601882  )
       178           H   tau( 178) = (  -0.0757396   0.0279917   0.1222296  )
       179           C   tau( 179) = (  -0.1013582   0.2697562   0.1883945  )
       180           C   tau( 180) = (   0.8235746   0.2596334   0.1544269  )
       181           H   tau( 181) = (   0.8045315   0.2973419   0.1160434  )
       182           C   tau( 182) = (   0.7758643   0.1949237   0.1759477  )
       183           C   tau( 183) = (   0.8024524   0.1410968   0.2328045  )
       184           H   tau( 184) = (   0.7697029   0.0970030   0.2483637  )
       185           C   tau( 185) = (  -0.1225053   0.1520488   0.2670603  )
       186           H   tau( 186) = (  -0.1041243   0.1151881   0.3065576  )
       187           C   tau( 187) = (  -0.0740825   0.2152383   0.2450113  )
       188           H   tau( 188) = (  -0.0223504   0.2214412   0.2683842  )
       189           C   tau( 189) = (   0.5271018   0.3086580   0.1034393  )
       190           H   tau( 190) = (   0.5481005   0.3449569   0.0620336  )
       191           H   tau( 191) = (   0.4995341   0.3400807   0.1449231  )
       192           H   tau( 192) = (   0.5717213   0.2788522   0.1278024  )
       193           C   tau( 193) = (   0.6585468   0.1179147   0.1463970  )
       194           H   tau( 194) = (   0.6108251   0.1198425   0.1119025  )
       195           H   tau( 195) = (   0.6923076   0.0722859   0.1306723  )
       196           H   tau( 196) = (   0.6419198   0.1116133   0.2025601  )

     number of k points=     1
                       cart. coord. in units 2pi/alat
        k(    1) = (   0.0000000   0.0000000   0.0000000), wk =   2.0000000

     Dense  grid:  1503115 G-vectors     FFT dimensions: ( 243,  90, 384)

     Smooth grid:   380209 G-vectors     FFT dimensions: ( 160,  54, 240)

     Estimated max dynamical RAM per process >      85.71 MB

     Estimated total dynamical RAM >      10.04 GB

     Check: negative core charge=   -0.000001

     Initial potential from superposition of free atoms

     starting charge     559.9952, renormalised to     560.0000
     Starting wfcs are  532 randomized atomic wfcs

     total cpu time spent up to now is        4.0 secs

     Self-consistent Calculation

     iteration #  1     ecut=    60.00 Ry     beta= 0.70
     Davidson diagonalization with overlap
     ethr =  1.00E-02,  avg # of iterations =  3.0

     total cpu time spent up to now is        6.2 secs

     total energy              =   -1758.53544683 Ry
     estimated scf accuracy    <      27.30710538 Ry

     iteration #  2     ecut=    60.00 Ry     beta= 0.70
     Davidson diagonalization with overlap
     ethr =  4.88E-03,  avg # of iterations =  2.0

     total cpu time spent up to now is        7.8 secs

     total energy              =   -1756.11755209 Ry
     estimated scf accuracy    <       7.24885681 Ry

     iteration #  3     ecut=    60.00 Ry     beta= 0.70
     Davidson diagonalization with overlap
     ethr =  1.29E-03,  avg # of iterations =  4.0

     total cpu time spent up to now is       10.1 secs

     total energy              =   -1757.83014890 Ry
     estimated scf accuracy    <       1.13550697 Ry

     iteration #  4     ecut=    60.00 Ry     beta= 0.70
     Davidson diagonalization with overlap
     ethr =  2.03E-04,  avg # of iterations =  4.0

     total cpu time spent up to now is       11.8 secs

     total energy              =   -1757.59471755 Ry
     estimated scf accuracy    <       0.60676194 Ry

     iteration #  5     ecut=    60.00 Ry     beta= 0.70
     Davidson diagonalization with overlap
^C[midcomputer120:19343] Read -1, expected 12504, errno = 3
[midcomputer120:19361] Read -1, expected 12504, errno = 3
[midcomputer120:19354] Read -1, expected 12504, errno = 3
cyk@midcomputer120:~/q-e-qe-7.2/4amp15iso$
cyk@midcomputer120:~/q-e-qe-7.2/4amp15iso$ mpirun -np 120 /home/cyk/q-e-qe-7.2/bin/pw.x -input 4amp15iso_relax.in

     Program PWSCF v.7.2 starts on 26Feb2024 at 11:29:23

     This program is part of the open-source Quantum ESPRESSO suite
     for quantum simulation of materials; please cite
         "P. Giannozzi et al., J. Phys.:Condens. Matter 21 395502 (2009);
         "P. Giannozzi et al., J. Phys.:Condens. Matter 29 465901 (2017);
         "P. Giannozzi et al., J. Chem. Phys. 152 154105 (2020);
          URL http://www.quantum-espresso.org",
     in publications or presentations arising from this work. More details at
     http://www.quantum-espresso.org/quote

     Parallel version (MPI), running on   120 processors

     MPI processes distributed on     1 nodes
     451345 MiB available memory on the printing compute node when the environment starts

     Reading input from 4amp15iso_relax.in

     Current dimensions of program PWSCF are:
     Max number of different atomic species (ntypx) = 10
     Max number of k-points (npk) =  40000
     Max angular momentum in pseudopotentials (lmaxx) =  4

     IMPORTANT: XC functional enforced from input :
     Exchange-correlation= PBE0
                           (   6   4   8   4   0   0   0)
     EXX-fraction              =        0.25
     Any further DFT definition will be discarded
     Please, verify this is what you really want


     gamma-point specific algorithms are used

     R & G space division:  proc/nbgrp/npool/nimage =     120
     Subspace diagonalization in iterative solution of the eigenvalue problem:
     a serial algorithm will be used

     EXX: q-point mesh:     1    1    1
     EXX: grid of k+q points same as grid of k-points

     Parallelization info
     --------------------
     sticks:   dense  smooth     PW     G-vecs:    dense   smooth      PW
     Min         681     681    170               146770   146770   18338
     Max         686     686    172               146790   146790   18352
     Sum       81861   81861  20461             17613727 17613727 2201421

     Using Slab Decomposition



     bravais-lattice index     =            1
     lattice parameter (alat)  =      56.6918  a.u.
     unit-cell volume          =  182205.0314 (a.u.)^3
     number of atoms/cell      =           49
     number of atomic types    =            4
     number of electrons       =       140.00
     number of Kohn-Sham states=           70
     kinetic-energy cutoff     =      80.0000  Ry
     charge density cutoff     =     320.0000  Ry
     cutoff for Fock operator  =      80.0000  Ry
     scf convergence threshold =      1.0E-06
     mixing beta               =       0.7000
     number of iterations used =            8  local-TF  mixing
     energy convergence thresh.=      5.0E-04
     force convergence thresh. =      5.0E-03
     Exchange-correlation= PBE0
                           (   6   4   8   4   0   0   0)
     EXX-fraction              =        0.25
     nstep                     =           50


     celldm(1)=  56.691784  celldm(2)=   0.000000  celldm(3)=   0.000000
     celldm(4)=   0.000000  celldm(5)=   0.000000  celldm(6)=   0.000000

     crystal axes: (cart. coord. in units of alat)
               a(1) = (   1.000000   0.000000   0.000000 )
               a(2) = (   0.000000   1.000000   0.000000 )
               a(3) = (   0.000000   0.000000   1.000000 )

     reciprocal axes: (cart. coord. in units 2 pi/alat)
               b(1) = (  1.000000  0.000000  0.000000 )
               b(2) = (  0.000000  1.000000  0.000000 )
               b(3) = (  0.000000  0.000000  1.000000 )


     PseudoPot. # 1 for O  read from file:
     /home/cyk/q-e-qe-7.2/pp/O_ONCV_PBE-1.2.upf
     MD5 check sum: e36c48deb68f4e355fffe4602be2c42c
     Pseudo is Norm-conserving, Zval =  6.0
     Generated using ONCVPSP code by D. R. Hamann
     Using radial grid of  602 points,  4 beta functions with:
                l(1) =   0
                l(2) =   0
                l(3) =   1
                l(4) =   1

     PseudoPot. # 2 for N  read from file:
     /home/cyk/q-e-qe-7.2/pp/N_ONCV_PBE-1.2.upf
     MD5 check sum: c233fa8df51455e992258b7c3dee8a9f
     Pseudo is Norm-conserving, Zval =  5.0
     Generated using ONCVPSP code by D. R. Hamann
     Using radial grid of  602 points,  4 beta functions with:
                l(1) =   0
                l(2) =   0
                l(3) =   1
                l(4) =   1

     PseudoPot. # 3 for C  read from file:
     /home/cyk/q-e-qe-7.2/pp/C_ONCV_PBE-1.2.upf
     MD5 check sum: 1a5f83a7b1f58d24996abe00ed223ac6
     Pseudo is Norm-conserving, Zval =  4.0
     Generated using ONCVPSP code by D. R. Hamann
     Using radial grid of  602 points,  4 beta functions with:
                l(1) =   0
                l(2) =   0
                l(3) =   1
                l(4) =   1

     PseudoPot. # 4 for H  read from file:
     /home/cyk/q-e-qe-7.2/pp/H_ONCV_PBE-1.2.upf
     MD5 check sum: bf21e08b90ac4ce7d0149ac4e8138190
     Pseudo is Norm-conserving, Zval =  1.0
     Generated using ONCVPSP code by D. R. Hamann
     Using radial grid of  602 points,  2 beta functions with:
                l(1) =   0
                l(2) =   0

     atomic species   valence    mass     pseudopotential
        O              6.00    16.00000     O ( 1.00)
        N              5.00    14.00000     N ( 1.00)
        C              4.00    12.00000     C ( 1.00)
        H              1.00     1.00000     H ( 1.00)

     No symmetry found



   Cartesian axes

     site n.     atom                  positions (alat units)
         1           O   tau(   1) = (   0.5462474   0.4331690   0.4041094  )
         2           O   tau(   2) = (   0.6939025   0.2511287   0.4534924  )
         3           O   tau(   3) = (   0.2801226   0.6838681   0.4826253  )
         4           N   tau(   4) = (   0.4486633   0.5848792   0.5152676  )
         5           C   tau(   5) = (   0.6528430   0.3639719   0.5213858  )
         6           H   tau(   6) = (   0.6420602   0.3937675   0.5386509  )
         7           C   tau(   7) = (   0.6835043   0.3360043   0.5410437  )
         8           H   tau(   8) = (   0.6965220   0.3438767   0.5738203  )
         9           C   tau(   9) = (   0.6983683   0.2975816   0.5196358  )
        10           H   tau(  10) = (   0.7224611   0.2762900   0.5359416  )
        11           C   tau(  11) = (   0.6820101   0.2874002   0.4775129  )
        12           C   tau(  12) = (   0.6511609   0.3157090   0.4574571  )
        13           H   tau(  13) = (   0.6388840   0.3072527   0.4245404  )
        14           C   tau(  14) = (   0.6361294   0.3539443   0.4789084  )
        15           C   tau(  15) = (   0.6036611   0.3817306   0.4559233  )
        16           H   tau(  16) = (   0.5955392   0.3721936   0.4219027  )
        17           C   tau(  17) = (   0.5825240   0.4175906   0.4719429  )
        18           H   tau(  18) = (   0.5885264   0.4292526   0.5055474  )
        19           C   tau(  19) = (   0.5509491   0.4424006   0.4434031  )
        20           C   tau(  20) = (   0.5249586   0.4796358   0.4634886  )
        21           C   tau(  21) = (   0.5028084   0.5086483   0.4346807  )
        22           H   tau(  22) = (   0.5061453   0.5031035   0.3991534  )
        23           C   tau(  23) = (   0.4776092   0.5435032   0.4508992  )
        24           H   tau(  24) = (   0.4617683   0.5665888   0.4280565  )
        25           C   tau(  25) = (   0.4733203   0.5500797   0.4968922  )
        26           C   tau(  26) = (   0.4959949   0.5215763   0.5258117  )
        27           H   tau(  27) = (   0.4930560   0.5271538   0.5613665  )
        28           C   tau(  28) = (   0.5211615   0.4867276   0.5093069  )
        29           H   tau(  29) = (   0.5375022   0.4646246   0.5326967  )
        30           C   tau(  30) = (   0.4114016   0.5954200   0.4980786  )
        31           H   tau(  31) = (   0.3971780   0.5764552   0.4701810  )
        32           C   tau(  32) = (   0.3844596   0.6326395   0.5141672  )
        33           C   tau(  33) = (   0.3447858   0.6421146   0.4923573  )
        34           H   tau(  34) = (   0.3340466   0.6223128   0.4640767  )
        35           C   tau(  35) = (   0.3179312   0.6773186   0.5063244  )
        36           C   tau(  36) = (   0.3310275   0.7029363   0.5426326  )
        37           H   tau(  37) = (   0.3107354   0.7303898   0.5542331  )
        38           C   tau(  38) = (   0.3708724   0.6931392   0.5644115  )
        39           H   tau(  39) = (   0.3807082   0.7133582   0.5926986  )
        40           C   tau(  40) = (   0.3976946   0.6585068   0.5506229  )
        41           H   tau(  41) = (   0.4286912   0.6507078   0.5673479  )
        42           C   tau(  42) = (   0.7252282   0.2217156   0.4724558  )
        43           H   tau(  43) = (   0.7300981   0.1951706   0.4482096  )
        44           H   tau(  44) = (   0.7129008   0.2073336   0.5036593  )
        45           H   tau(  45) = (   0.7571427   0.2383257   0.4786225  )
        46           C   tau(  46) = (   0.2514360   0.7184163   0.4964210  )
        47           H   tau(  47) = (   0.2232012   0.7177717   0.4736495  )
        48           H   tau(  48) = (   0.2677558   0.7510003   0.4943606  )
        49           H   tau(  49) = (   0.2395108   0.7130424   0.5304973  )

     number of k points=     1
                       cart. coord. in units 2pi/alat
        k(    1) = (   0.0000000   0.0000000   0.0000000), wk =   2.0000000

     Dense  grid:  8806864 G-vectors     FFT dimensions: ( 324, 324, 324)

     Estimated max dynamical RAM per process >     312.20 MB

     Estimated total dynamical RAM >      36.59 GB
     EXX: ACE will be initialized later

     Initial potential from superposition of free atoms

     starting charge     139.7826, renormalised to     140.0000

     negative rho (up, down):  4.571E-03 0.000E+00
     Starting wfcs are random

     total cpu time spent up to now is       10.9 secs

     Self-consistent Calculation

     iteration #  1     ecut=    80.00 Ry     beta= 0.70
     Davidson diagonalization with overlap
     ethr =  1.00E-02,  avg # of iterations = 19.0

     total cpu time spent up to now is      431.2 secs

     total energy              =    -414.13956803 Ry
     estimated scf accuracy    <       5.12507168 Ry

     iteration #  2     ecut=    80.00 Ry     beta= 0.70
     Davidson diagonalization with overlap
     ethr =  3.66E-03,  avg # of iterations =  2.0

     total cpu time spent up to now is      447.9 secs

     total energy              =    -413.62409250 Ry
     estimated scf accuracy    <       1.62503724 Ry

     iteration #  3     ecut=    80.00 Ry     beta= 0.70
     Davidson diagonalization with overlap
     ethr =  1.16E-03,  avg # of iterations =  2.0

     total cpu time spent up to now is      458.2 secs

     total energy              =    -413.86444553 Ry
     estimated scf accuracy    <       0.26000245 Ry

     iteration #  4     ecut=    80.00 Ry     beta= 0.70
     Davidson diagonalization with overlap
     ethr =  1.86E-04,  avg # of iterations =  5.0

     total cpu time spent up to now is      477.5 secs

     total energy              =    -413.85245120 Ry
     estimated scf accuracy    <       0.15142219 Ry

     iteration #  5     ecut=    80.00 Ry     beta= 0.70
     Davidson diagonalization with overlap
     ethr =  1.08E-04,  avg # of iterations =  2.0

     negative rho (up, down):  2.162E-04 0.000E+00

     total cpu time spent up to now is      508.5 secs

     total energy              =    -413.84562102 Ry
     estimated scf accuracy    <       0.09535993 Ry

     iteration #  6     ecut=    80.00 Ry     beta= 0.70
     Davidson diagonalization with overlap
     ethr =  6.81E-05,  avg # of iterations =  1.0

     negative rho (up, down):  3.501E-01 0.000E+00

     total cpu time spent up to now is      566.6 secs

     total energy              =    -413.82681721 Ry
     estimated scf accuracy    <       0.06723392 Ry

     iteration #  7     ecut=    80.00 Ry     beta= 0.70
     Davidson diagonalization with overlap
     ethr =  4.80E-05,  avg # of iterations =  2.0

     negative rho (up, down):  2.955E-01 0.000E+00

     total cpu time spent up to now is      633.0 secs

     total energy              =    -413.82487523 Ry
     estimated scf accuracy    <       0.03390803 Ry

     iteration #  8     ecut=    80.00 Ry     beta= 0.70
     Davidson diagonalization with overlap
     ethr =  2.42E-05,  avg # of iterations =  3.0

     negative rho (up, down):  3.863E-01 0.000E+00

     total cpu time spent up to now is      704.6 secs

     total energy              =    -413.82155953 Ry
     estimated scf accuracy    <       0.02157052 Ry

     iteration #  9     ecut=    80.00 Ry     beta= 0.70
     Davidson diagonalization with overlap
     ethr =  1.54E-05,  avg # of iterations =  4.0

     negative rho (up, down):  3.297E-01 0.000E+00

     total cpu time spent up to now is      849.1 secs

     total energy              =    -413.81611662 Ry
     estimated scf accuracy    <       0.01488865 Ry

     iteration # 10     ecut=    80.00 Ry     beta= 0.70
     Davidson diagonalization with overlap
     ethr =  1.06E-05,  avg # of iterations =  4.0

     negative rho (up, down):  2.344E-01 0.000E+00

     total cpu time spent up to now is      975.6 secs

     total energy              =    -413.81486349 Ry
     estimated scf accuracy    <       0.00523917 Ry

     iteration # 11     ecut=    80.00 Ry     beta= 0.70
     Davidson diagonalization with overlap
     ethr =  3.74E-06,  avg # of iterations =  2.0

     negative rho (up, down):  1.494E-01 0.000E+00

     total cpu time spent up to now is     1076.6 secs

     total energy              =    -413.81326838 Ry
     estimated scf accuracy    <       0.00268399 Ry

     iteration # 12     ecut=    80.00 Ry     beta= 0.70
     Davidson diagonalization with overlap
     ethr =  1.92E-06,  avg # of iterations =  3.0

     total cpu time spent up to now is     1080.9 secs

     End of self-consistent calculation

          k = 0.0000 0.0000 0.0000 (****** PWs)   bands (ev):

   -27.1562 -27.0813 -25.5640 -23.6243 -21.5914 -21.5231 -21.1965 -19.8417
   -19.3427 -19.0524 -18.9769 -18.6523 -18.5456 -18.1560 -17.4294 -17.3678
   -16.5940 -15.8815 -15.2451 -15.1358 -15.0796 -14.9052 -14.1886 -13.9756
   -13.4892 -13.2230 -12.8762 -12.7725 -12.3147 -12.1158 -12.0842 -11.7762
   -11.7386 -11.6731 -11.6469 -11.5148 -11.0606 -10.8828 -10.6570 -10.5038
   -10.4660 -10.3092 -10.2532 -10.1656 -10.0332  -9.8238  -9.7360  -9.5744
    -9.3455  -9.2980  -9.1205  -8.9581  -8.8463  -8.7513  -8.6003  -8.5424
    -8.2008  -8.1761  -8.0226  -7.8998  -7.7917  -7.2713  -6.9414  -6.4537
    -6.2749  -5.8964  -5.7045  -5.5620  -5.4992  -5.4079

     highest occupied level (ev):    -5.4079

!    total energy              =    -413.81286898 Ry
     estimated scf accuracy    <       0.00075238 Ry

     charge density inside the Wigner-Seitz cell:  140.00000000

     reference position (x0):        28.79810816   27.83898853   27.80325711 bohr

     Dipole moments (with respect to x0):
     Elect  -0.3829   0.4405   1.2928 au (Ha),  -0.9732   1.1196   3.2860 Debye
     Ionic  -0.0000  -0.0000   0.0000 au (Ha),  -0.0000  -0.0000   0.0000 Debye
     Total  -0.3829   0.4405   1.2928 au (Ha),  -0.9732   1.1196   3.2860 Debye

     Electrons quadrupole moment     -21351.07765578 a.u. (Ha)
          Ions quadrupole moment      21058.98462293 a.u. (Ha)
         Total quadrupole moment       -292.09303285 a.u. (Ha)

     *********    MAKOV-PAYNE CORRECTION    *********

     Makov-Payne correction with Madelung constant =   2.8373

     Makov-Payne correction     0.00000000 Ry =  0.000 eV (1st order, 1/a0)
                                0.00004625 Ry =  0.001 eV (2nd order, 1/a0^3)
                                0.00004625 Ry =  0.001 eV (total)

!    Total+Makov-Payne energy  =    -413.81282272 Ry
     Corrected vacuum level    =       0.09310706 eV

     convergence has been achieved in  12 iterations

     Using ACE for calculation of exact exchange

     EXX grid:  1100711 G-vectors     FFT dimensions: ( 162, 162, 162)
     ACE projected onto    70 (nbndproj) and applied to    70 (nbnd) bands

     EXX: now go back to refine exchange calculation

     total cpu time spent up to now is     1102.8 secs

     Self-consistent Calculation

     iteration #  1     ecut=    80.00 Ry     beta= 0.70
     Davidson diagonalization with overlap
     ethr =  1.92E-06,  avg # of iterations =  6.0

     total cpu time spent up to now is     1238.8 secs

     total energy              =    -413.69927763 Ry
     estimated scf accuracy    <       0.00619356 Ry

     iteration #  2     ecut=    80.00 Ry     beta= 0.70
     Davidson diagonalization with overlap
     ethr =  4.42E-06,  avg # of iterations =  2.0

     total cpu time spent up to now is     1257.7 secs

     total energy              =    -413.69889504 Ry
     estimated scf accuracy    <       0.00130245 Ry

     iteration #  3     ecut=    80.00 Ry     beta= 0.70
     Davidson diagonalization with overlap
     ethr =  9.30E-07,  avg # of iterations =  3.0

     total cpu time spent up to now is     1263.2 secs

     End of self-consistent calculation

          k = 0.0000 0.0000 0.0000 (****** PWs)   bands (ev):

   -30.4322 -30.3260 -28.8055 -26.5652 -24.4014 -24.3463 -23.9417 -22.5349
   -21.9363 -21.6010 -21.5068 -21.1887 -21.0631 -20.6615 -19.8379 -19.7533
   -18.8802 -18.1173 -17.3923 -17.2740 -17.2289 -17.0162 -16.2081 -15.9315
   -15.3590 -15.0828 -14.7396 -14.6768 -14.1486 -13.8870 -13.8529 -13.5881
   -13.5625 -13.4631 -13.4232 -13.2656 -12.7528 -12.5696 -12.3792 -12.1531
   -12.0877 -11.9701 -11.8317 -11.8167 -11.6281 -11.3368 -11.2839 -11.0591
   -10.8780 -10.8187 -10.6726 -10.5020 -10.3341 -10.2684 -10.0957  -9.9502
    -9.6508  -9.6154  -9.5334  -9.3884  -9.1314  -8.4632  -8.1203  -7.4573
    -7.3399  -7.0138  -6.8344  -6.7254  -6.4913  -6.3911

     highest occupied level (ev):    -6.3911

!    total energy              =    -413.69902703 Ry
     estimated scf accuracy    <       0.00015976 Ry

     charge density inside the Wigner-Seitz cell:  140.00000000

     reference position (x0):        28.79810816   27.83898853   27.80325711 bohr

     Dipole moments (with respect to x0):
     Elect  -0.3265   0.4383   1.3804 au (Ha),  -0.8298   1.1142   3.5085 Debye
     Ionic  -0.0000  -0.0000   0.0000 au (Ha),  -0.0000  -0.0000   0.0000 Debye
     Total  -0.3265   0.4383   1.3804 au (Ha),  -0.8298   1.1142   3.5085 Debye

     Electrons quadrupole moment     -21351.91090422 a.u. (Ha)
          Ions quadrupole moment      21058.98462293 a.u. (Ha)
         Total quadrupole moment       -292.92628129 a.u. (Ha)

     *********    MAKOV-PAYNE CORRECTION    *********

     Makov-Payne correction with Madelung constant =   2.8373

     Makov-Payne correction     0.00000000 Ry =  0.000 eV (1st order, 1/a0)
                                0.00005067 Ry =  0.001 eV (2nd order, 1/a0^3)
                                0.00005067 Ry =  0.001 eV (total)

!    Total+Makov-Payne energy  =    -413.69897636 Ry
     Corrected vacuum level    =       0.09338583 eV

     convergence has been achieved in   3 iterations

     Using ACE for calculation of exact exchange
     ACE projected onto    70 (nbndproj) and applied to    70 (nbnd) bands

     total energy              =    -413.70224367 Ry
     Harris-Foulkes estimate   =    -413.70236187 Ry
     est. exchange err (dexx)  =       0.00321664 Ry
     - averaged Fock potential =      56.92664461 Ry
     + Fock energy (ACE)       =     -28.48325978 Ry

     scf convergence threshold =          3.2E-04 Ry

     EXX: now go back to refine exchange calculation

     total cpu time spent up to now is     1284.7 secs

     Self-consistent Calculation

     iteration #  1     ecut=    80.00 Ry     beta= 0.70
     Davidson diagonalization with overlap
     ethr =  9.30E-07,  avg # of iterations =  5.0

     total cpu time spent up to now is     1291.5 secs

     End of self-consistent calculation

          k = 0.0000 0.0000 0.0000 (****** PWs)   bands (ev):

   -30.3403 -30.2610 -28.8177 -26.6115 -24.3876 -24.3309 -23.9781 -22.5341
   -21.9375 -21.5483 -21.4722 -21.2106 -21.0996 -20.6711 -19.7788 -19.7139
   -18.8907 -18.1177 -17.3965 -17.2669 -17.2187 -17.0317 -16.1982 -15.9168
   -15.3590 -15.0716 -14.7445 -14.6811 -14.1391 -13.8611 -13.8297 -13.5717
   -13.4800 -13.4175 -13.4031 -13.2789 -12.7602 -12.5988 -12.3860 -12.1592
   -12.0814 -11.9673 -11.8823 -11.7823 -11.6155 -11.3370 -11.2679 -11.0316
   -10.8800 -10.8061 -10.6941 -10.4824 -10.3324 -10.2664 -10.1013  -9.9446
    -9.6622  -9.5829  -9.5035  -9.3729  -9.1213  -8.4537  -8.1492  -7.4810
    -7.3669  -7.0490  -6.8284  -6.7052  -6.4832  -6.4051

     highest occupied level (ev):    -6.4051

!    total energy              =    -413.70276000 Ry
     estimated scf accuracy    <       0.00022480 Ry

     charge density inside the Wigner-Seitz cell:  140.00000000

     reference position (x0):        28.79810816   27.83898853   27.80325711 bohr

     Dipole moments (with respect to x0):
     Elect  -0.3374   0.4300   1.3501 au (Ha),  -0.8575   1.0929   3.4317 Debye
     Ionic  -0.0000  -0.0000   0.0000 au (Ha),  -0.0000  -0.0000   0.0000 Debye
     Total  -0.3374   0.4300   1.3501 au (Ha),  -0.8575   1.0929   3.4317 Debye

     Electrons quadrupole moment     -21351.60422769 a.u. (Ha)
          Ions quadrupole moment      21058.98462293 a.u. (Ha)
         Total quadrupole moment       -292.61960477 a.u. (Ha)

     *********    MAKOV-PAYNE CORRECTION    *********

     Makov-Payne correction with Madelung constant =   2.8373

     Makov-Payne correction     0.00000000 Ry =  0.000 eV (1st order, 1/a0)
                                0.00004877 Ry =  0.001 eV (2nd order, 1/a0^3)
                                0.00004877 Ry =  0.001 eV (total)

!    Total+Makov-Payne energy  =    -413.70271123 Ry
     Corrected vacuum level    =       0.09328987 eV

     convergence has been achieved in   1 iterations

     Using ACE for calculation of exact exchange
     ACE projected onto    70 (nbndproj) and applied to    70 (nbnd) bands

     total energy              =    -413.70293853 Ry
     Harris-Foulkes estimate   =    -413.70311364 Ry
     est. exchange err (dexx)  =       0.00017853 Ry
     - averaged Fock potential =      56.97424712 Ry
     + Fock energy (ACE)       =     -28.49116587 Ry

     scf convergence threshold =          1.8E-05 Ry

     EXX: now go back to refine exchange calculation

     total cpu time spent up to now is     1312.9 secs

     Self-consistent Calculation

     iteration #  1     ecut=    80.00 Ry     beta= 0.70
     Davidson diagonalization with overlap
     ethr =  9.30E-07,  avg # of iterations =  3.0

     total cpu time spent up to now is     1460.1 secs

     total energy              =    -413.70304714 Ry
     estimated scf accuracy    <       0.00014372 Ry

     iteration #  2     ecut=    80.00 Ry     beta= 0.70
     Davidson diagonalization with overlap
     ethr =  1.03E-07,  avg # of iterations =  3.0

     total cpu time spent up to now is     1492.7 secs

     total energy              =    -413.70303838 Ry
     estimated scf accuracy    <       0.00004592 Ry

     iteration #  3     ecut=    80.00 Ry     beta= 0.70
     Davidson diagonalization with overlap
     ethr =  3.28E-08,  avg # of iterations =  4.0

     total cpu time spent up to now is     1498.5 secs

     End of self-consistent calculation

          k = 0.0000 0.0000 0.0000 (****** PWs)   bands (ev):

   -30.3674 -30.2796 -28.8149 -26.5903 -24.3943 -24.3432 -23.9670 -22.5430
   -21.9411 -21.5676 -21.4883 -21.2081 -21.0909 -20.6727 -19.7971 -19.7277
   -18.8938 -18.1277 -17.3964 -17.2725 -17.2263 -17.0317 -16.2036 -15.9212
   -15.3606 -15.0751 -14.7466 -14.6834 -14.1479 -13.8700 -13.8374 -13.5762
   -13.5013 -13.4211 -13.4164 -13.2771 -12.7608 -12.5927 -12.3854 -12.1592
   -12.0860 -11.9715 -11.8683 -11.7967 -11.6238 -11.3386 -11.2731 -11.0429
   -10.8853 -10.8100 -10.6921 -10.4867 -10.3353 -10.2741 -10.1041  -9.9442
    -9.6587  -9.5914  -9.5165  -9.3835  -9.1218  -8.4578  -8.1353  -7.4703
    -7.3562  -7.0383  -6.8364  -6.7118  -6.4888  -6.4059

     highest occupied level (ev):    -6.4059

!    total energy              =    -413.70304343 Ry
     estimated scf accuracy    <       0.00001143 Ry

     charge density inside the Wigner-Seitz cell:  140.00000000

     reference position (x0):        28.79810816   27.83898853   27.80325711 bohr

     Dipole moments (with respect to x0):
     Elect  -0.3225   0.4303   1.3657 au (Ha),  -0.8198   1.0938   3.4714 Debye
     Ionic  -0.0000  -0.0000   0.0000 au (Ha),  -0.0000  -0.0000   0.0000 Debye
     Total  -0.3225   0.4303   1.3657 au (Ha),  -0.8198   1.0938   3.4714 Debye

     Electrons quadrupole moment     -21352.13606774 a.u. (Ha)
          Ions quadrupole moment      21058.98462293 a.u. (Ha)
         Total quadrupole moment       -293.15144482 a.u. (Ha)

     *********    MAKOV-PAYNE CORRECTION    *********

     Makov-Payne correction with Madelung constant =   2.8373

     Makov-Payne correction     0.00000000 Ry =  0.000 eV (1st order, 1/a0)
                                0.00004953 Ry =  0.001 eV (2nd order, 1/a0^3)
                                0.00004953 Ry =  0.001 eV (total)

!    Total+Makov-Payne energy  =    -413.70299390 Ry
     Corrected vacuum level    =       0.09345238 eV

     convergence has been achieved in   3 iterations

     Using ACE for calculation of exact exchange
     ACE projected onto    70 (nbndproj) and applied to    70 (nbnd) bands

     total energy              =    -413.70306885 Ry
     Harris-Foulkes estimate   =    -413.70307804 Ry
     est. exchange err (dexx)  =       0.00002542 Ry
     - averaged Fock potential =      56.98434559 Ry
     + Fock energy (ACE)       =     -28.49320515 Ry

     scf convergence threshold =          2.5E-06 Ry

     EXX: now go back to refine exchange calculation

     total cpu time spent up to now is     1520.0 secs

     Self-consistent Calculation

     iteration #  1     ecut=    80.00 Ry     beta= 0.70
     Davidson diagonalization with overlap
     ethr =  3.28E-08,  avg # of iterations =  5.0

     negative rho (up, down):  1.670E-05 0.000E+00

     total cpu time spent up to now is     1669.6 secs

     total energy              =    -413.70307990 Ry
     estimated scf accuracy    <       0.00002053 Ry

     iteration #  2     ecut=    80.00 Ry     beta= 0.70
     Davidson diagonalization with overlap
     ethr =  1.47E-08,  avg # of iterations =  3.0

     negative rho (up, down):  3.847E-05 0.000E+00

     total cpu time spent up to now is     2740.4 secs

     total energy              =    -413.70308081 Ry
     estimated scf accuracy    <       0.00000358 Ry

     iteration #  3     ecut=    80.00 Ry     beta= 0.70
     Davidson diagonalization with overlap
     ethr =  2.55E-09,  avg # of iterations =  4.0

     total cpu time spent up to now is     2745.8 secs

     End of self-consistent calculation

          k = 0.0000 0.0000 0.0000 (****** PWs)   bands (ev):

   -30.3453 -30.2622 -28.8181 -26.6004 -24.3894 -24.3361 -23.9727 -22.5404
   -21.9401 -21.5562 -21.4797 -21.2109 -21.0974 -20.6718 -19.7848 -19.7189
   -18.8962 -18.1264 -17.3966 -17.2692 -17.2212 -17.0332 -16.2009 -15.9175
   -15.3594 -15.0716 -14.7457 -14.6825 -14.1454 -13.8625 -13.8301 -13.5710
   -13.4843 -13.4169 -13.4055 -13.2782 -12.7610 -12.5967 -12.3850 -12.1594
   -12.0815 -11.9685 -11.8775 -11.7876 -11.6198 -11.3403 -11.2691 -11.0363
   -10.8834 -10.8072 -10.6948 -10.4810 -10.3332 -10.2708 -10.1021  -9.9434
    -9.6593  -9.5827  -9.5058  -9.3757  -9.1182  -8.4540  -8.1398  -7.4742
    -7.3611  -7.0409  -6.8318  -6.7065  -6.4847  -6.4074

     highest occupied level (ev):    -6.4074

!    total energy              =    -413.70308065 Ry
     estimated scf accuracy    <       0.00000096 Ry

     charge density inside the Wigner-Seitz cell:  140.00000000

     reference position (x0):        28.79810816   27.83898853   27.80325711 bohr

     Dipole moments (with respect to x0):
     Elect  -0.3249   0.4256   1.3539 au (Ha),  -0.8257   1.0818   3.4414 Debye
     Ionic  -0.0000  -0.0000   0.0000 au (Ha),  -0.0000  -0.0000   0.0000 Debye
     Total  -0.3249   0.4256   1.3539 au (Ha),  -0.8257   1.0818   3.4414 Debye

     Electrons quadrupole moment     -21352.01521276 a.u. (Ha)
          Ions quadrupole moment      21058.98462293 a.u. (Ha)
         Total quadrupole moment       -293.03058984 a.u. (Ha)

     *********    MAKOV-PAYNE CORRECTION    *********

     Makov-Payne correction with Madelung constant =   2.8373

     Makov-Payne correction     0.00000000 Ry =  0.000 eV (1st order, 1/a0)
                                0.00004873 Ry =  0.001 eV (2nd order, 1/a0^3)
                                0.00004873 Ry =  0.001 eV (total)

!    Total+Makov-Payne energy  =    -413.70303192 Ry
     Corrected vacuum level    =       0.09341514 eV

     convergence has been achieved in   3 iterations

     Using ACE for calculation of exact exchange
     ACE projected onto    70 (nbndproj) and applied to    70 (nbnd) bands

     total energy              =    -413.70308435 Ry
     Harris-Foulkes estimate   =    -413.70308522 Ry
     est. exchange err (dexx)  =       0.00000370 Ry
     - averaged Fock potential =      56.98617157 Ry
     + Fock energy (ACE)       =     -28.49297012 Ry

     scf convergence threshold =          1.0E-06 Ry

     EXX: now go back to refine exchange calculation

     total cpu time spent up to now is     2767.3 secs

     Self-consistent Calculation

     iteration #  1     ecut=    80.00 Ry     beta= 0.70
     Davidson diagonalization with overlap
     ethr =  2.55E-09,  avg # of iterations =  5.0

     total cpu time spent up to now is     2915.3 secs

     total energy              =    -413.70308596 Ry
     estimated scf accuracy    <       0.00000155 Ry

     iteration #  2     ecut=    80.00 Ry     beta= 0.70
     Davidson diagonalization with overlap
     ethr =  1.11E-09,  avg # of iterations =  2.0

     total cpu time spent up to now is     2919.9 secs

     End of self-consistent calculation

          k = 0.0000 0.0000 0.0000 (****** PWs)   bands (ev):

   -30.3503 -30.2663 -28.8209 -26.5939 -24.3891 -24.3379 -23.9699 -22.5416
   -21.9389 -21.5582 -21.4818 -21.2095 -21.0945 -20.6716 -19.7867 -19.7208
   -18.8948 -18.1267 -17.3951 -17.2688 -17.2223 -17.0322 -16.2011 -15.9172
   -15.3593 -15.0712 -14.7450 -14.6825 -14.1460 -13.8636 -13.8308 -13.5717
   -13.4880 -13.4168 -13.4082 -13.2768 -12.7595 -12.5951 -12.3857 -12.1591
   -12.0814 -11.9698 -11.8742 -11.7893 -11.6211 -11.3409 -11.2687 -11.0378
   -10.8841 -10.8074 -10.6941 -10.4808 -10.3321 -10.2718 -10.1027  -9.9426
    -9.6583  -9.5847  -9.5078  -9.3777  -9.1176  -8.4550  -8.1363  -7.4714
    -7.3582  -7.0429  -6.8339  -6.7070  -6.4856  -6.4070

     highest occupied level (ev):    -6.4070

!    total energy              =    -413.70308559 Ry
     estimated scf accuracy    <       0.00000051 Ry

     charge density inside the Wigner-Seitz cell:  140.00000000

     reference position (x0):        28.79810816   27.83898853   27.80325711 bohr

     Dipole moments (with respect to x0):
     Elect  -0.3214   0.4257   1.3579 au (Ha),  -0.8169   1.0819   3.4514 Debye
     Ionic  -0.0000  -0.0000   0.0000 au (Ha),  -0.0000  -0.0000   0.0000 Debye
     Total  -0.3214   0.4257   1.3579 au (Ha),  -0.8169   1.0819   3.4514 Debye

     Electrons quadrupole moment     -21352.16004567 a.u. (Ha)
          Ions quadrupole moment      21058.98462293 a.u. (Ha)
         Total quadrupole moment       -293.17542275 a.u. (Ha)

     *********    MAKOV-PAYNE CORRECTION    *********

     Makov-Payne correction with Madelung constant =   2.8373

     Makov-Payne correction     0.00000000 Ry =  0.000 eV (1st order, 1/a0)
                                0.00004893 Ry =  0.001 eV (2nd order, 1/a0^3)
                                0.00004893 Ry =  0.001 eV (total)

!    Total+Makov-Payne energy  =    -413.70303666 Ry
     Corrected vacuum level    =       0.09345924 eV

     convergence has been achieved in   2 iterations

     Using ACE for calculation of exact exchange
     ACE projected onto    70 (nbndproj) and applied to    70 (nbnd) bands

!!   total energy              =    -413.70308631 Ry
     Harris-Foulkes estimate   =    -413.70308679 Ry
     est. exchange err (dexx)  =       0.00000072 Ry
     - averaged Fock potential =      56.98598177 Ry
     + Fock energy (ACE)       =     -28.49301237 Ry

     charge density inside the Wigner-Seitz cell:  140.00000000

     reference position (x0):        28.79810816   27.83898853   27.80325711 bohr

     Dipole moments (with respect to x0):
     Elect  -0.3214   0.4257   1.3579 au (Ha),  -0.8169   1.0819   3.4514 Debye
     Ionic  -0.0000  -0.0000   0.0000 au (Ha),  -0.0000  -0.0000   0.0000 Debye
     Total  -0.3214   0.4257   1.3579 au (Ha),  -0.8169   1.0819   3.4514 Debye

     Electrons quadrupole moment     -21352.16004567 a.u. (Ha)
          Ions quadrupole moment      21058.98462293 a.u. (Ha)
         Total quadrupole moment       -293.17542275 a.u. (Ha)

     *********    MAKOV-PAYNE CORRECTION    *********

     Makov-Payne correction with Madelung constant =   2.8373

     Makov-Payne correction     0.00000000 Ry =  0.000 eV (1st order, 1/a0)
                                0.00004893 Ry =  0.001 eV (2nd order, 1/a0^3)
                                0.00004893 Ry =  0.001 eV (total)

!    Total+Makov-Payne energy  =    -413.70303739 Ry
     Corrected vacuum level    =       0.09345924 eV

     EXX self-consistency reached

     Forces acting on atoms (cartesian axes, Ry/au):

     atom    1 type  1   force =     0.00079821    0.00168693    0.00754242
     atom    2 type  1   force =     0.00125719    0.00224554    0.00409214
     atom    3 type  1   force =     0.00049514    0.00251261    0.00309400
     atom    4 type  2   force =    -0.00267319   -0.00177804   -0.00396946
     atom    5 type  3   force =     0.00024276   -0.00017346   -0.00043755
     atom    6 type  4   force =     0.00107175   -0.00265230   -0.00123783
     atom    7 type  3   force =    -0.00051290    0.00013923   -0.00017959
     atom    8 type  4   force =    -0.00105483   -0.00069092   -0.00272003
     atom    9 type  3   force =     0.00055268   -0.00090682   -0.00032417
     atom   10 type  4   force =    -0.00203816    0.00178458   -0.00128916
     atom   11 type  3   force =    -0.00116504    0.00137582   -0.00000508
     atom   12 type  3   force =     0.00001595   -0.00038465   -0.00058240
     atom   13 type  4   force =     0.00101042    0.00064301    0.00272732
     atom   14 type  3   force =     0.00050860   -0.00084964    0.00028245
     atom   15 type  3   force =    -0.00057776    0.00102250    0.00017470
     atom   16 type  4   force =     0.00068453    0.00052019    0.00274603
     atom   17 type  3   force =     0.00143183   -0.00140965   -0.00013236
     atom   18 type  4   force =    -0.00070924   -0.00086090   -0.00291767
     atom   19 type  3   force =    -0.00058009   -0.00100463   -0.00444944
     atom   20 type  3   force =    -0.00118169    0.00105614   -0.00005476
     atom   21 type  3   force =    -0.00003120   -0.00002034    0.00026010
     atom   22 type  4   force =    -0.00023056    0.00062209    0.00289456
     atom   23 type  3   force =     0.00012795    0.00042867   -0.00008184
     atom   24 type  4   force =     0.00130425   -0.00194668    0.00181480
     atom   25 type  3   force =     0.00167669   -0.00089926    0.00045284
     atom   26 type  3   force =    -0.00005029   -0.00018247   -0.00003507
     atom   27 type  4   force =     0.00027833   -0.00057684   -0.00296796
     atom   28 type  3   force =    -0.00017061   -0.00005749    0.00016761
     atom   29 type  4   force =    -0.00128203    0.00195970   -0.00185675
     atom   30 type  3   force =     0.00097290    0.00067601    0.00115493
     atom   31 type  4   force =     0.00110671    0.00102636    0.00198794
     atom   32 type  3   force =    -0.00059390    0.00079291    0.00005247
     atom   33 type  3   force =    -0.00021244   -0.00037096   -0.00030418
     atom   34 type  4   force =     0.00100177    0.00159701    0.00237811
     atom   35 type  3   force =     0.00128918   -0.00073104    0.00000206
     atom   36 type  3   force =    -0.00079109    0.00047685    0.00001155
     atom   37 type  4   force =     0.00180061   -0.00234597   -0.00089167
     atom   38 type  3   force =     0.00040226   -0.00025087   -0.00029060
     atom   39 type  4   force =    -0.00076412   -0.00173238   -0.00235380
     atom   40 type  3   force =    -0.00007016   -0.00026908   -0.00018349
     atom   41 type  4   force =    -0.00262688    0.00068100   -0.00139658
     atom   42 type  3   force =    -0.00007815   -0.00140004   -0.00088822
     atom   43 type  4   force =    -0.00043570    0.00210110    0.00180615
     atom   44 type  4   force =     0.00062927    0.00124558   -0.00218980
     atom   45 type  4   force =    -0.00241701   -0.00087982   -0.00040364
     atom   46 type  3   force =    -0.00099170    0.00013522   -0.00094835
     atom   47 type  4   force =     0.00230633   -0.00004652    0.00172012
     atom   48 type  4   force =    -0.00080490   -0.00249270    0.00007433
     atom   49 type  4   force =     0.00107831    0.00018443   -0.00234516
     The non-local contrib.  to forces
     atom    1 type  1   force =     0.31452821    0.59004560    2.54093602
     atom    2 type  1   force =     0.96752895    0.53017398    2.37323025
     atom    3 type  1   force =     0.66095825    1.44299263    2.07650544
     atom    4 type  2   force =    -0.63414068   -0.75327354   -1.29960636
     atom    5 type  3   force =    -0.02737481    0.02463226   -0.01639860
     atom    6 type  4   force =     0.02498525   -0.07029962   -0.04107667
     atom    7 type  3   force =     0.03927917   -0.03516265    0.02944416
     atom    8 type  4   force =    -0.03063418   -0.01882759   -0.07748004
     atom    9 type  3   force =     0.00809822   -0.04035734   -0.03923309
     atom   10 type  4   force =    -0.05715974    0.04996802   -0.03935665
     atom   11 type  3   force =     0.15835919   -0.44753735   -0.27425309
     atom   12 type  3   force =     0.03032958   -0.03884033    0.01913454
     atom   13 type  4   force =     0.02877075    0.02042450    0.07793941
     atom   14 type  3   force =    -0.06302124    0.04445476   -0.05478621
     atom   15 type  3   force =     0.09131597   -0.10165907    0.04200220
     atom   16 type  4   force =     0.02083354    0.02046378    0.08131703
     atom   17 type  3   force =    -0.05959455    0.08676550    0.03198383
     atom   18 type  4   force =    -0.01485262   -0.02714620   -0.07911606
     atom   19 type  3   force =    -0.01294971   -0.00878874   -0.05915403
     atom   20 type  3   force =     0.03788726   -0.02993466    0.00881947
     atom   21 type  3   force =     0.00287451    0.00730782    0.03567920
     atom   22 type  4   force =    -0.00874873    0.01504540    0.08547287
     atom   23 type  3   force =    -0.02213167    0.03958026    0.02634243
     atom   24 type  4   force =     0.03671400   -0.05433815    0.05432883
     atom   25 type  3   force =    -0.12319061    0.26288799    0.11608138
     atom   26 type  3   force =    -0.03328492   -0.01796434   -0.00851862
     atom   27 type  4   force =     0.00721100   -0.01392786   -0.08438235
     atom   28 type  3   force =     0.01092017   -0.03739952    0.01425744
     atom   29 type  4   force =    -0.03817512    0.05231741   -0.05598227
     atom   30 type  3   force =     0.04771034    0.03378291    0.07058544
     atom   31 type  4   force =     0.03178413    0.04354417    0.06279277
     atom   32 type  3   force =     0.02434440   -0.08241266   -0.06385074
     atom   33 type  3   force =    -0.02635745    0.02780035   -0.00280358
     atom   34 type  4   force =     0.02598645    0.04620559    0.06666624
     atom   35 type  3   force =    -0.45940219    0.09155969   -0.27711289
     atom   36 type  3   force =    -0.04920745   -0.00305256   -0.03869440
     atom   37 type  4   force =     0.04754741   -0.06532943   -0.02818781
     atom   38 type  3   force =    -0.04152077    0.04831353    0.01524610
     atom   39 type  4   force =    -0.02363045   -0.04762535   -0.06699047
     atom   40 type  3   force =    -0.02933462   -0.02456164   -0.04432239
     atom   41 type  4   force =    -0.07482586    0.01965767   -0.03946702
     atom   42 type  3   force =    -0.33947537    0.33394754   -0.18446760
     atom   43 type  4   force =    -0.01179288    0.06291475    0.05702591
     atom   44 type  4   force =     0.02779336    0.03359124   -0.07075041
     atom   45 type  4   force =    -0.07310857   -0.03710081   -0.01364695
     atom   46 type  3   force =     0.33017666   -0.37002067   -0.13186222
     atom   47 type  4   force =     0.06693840    0.00117039    0.05359753
     atom   48 type  4   force =    -0.03638874   -0.07458655    0.00511904
     atom   49 type  4   force =     0.02805101    0.01202310   -0.07736549
     The ionic contribution  to forces
     atom    1 type  1   force =    -2.04146771   -4.65031444  -19.19425404
     atom    2 type  1   force =     0.14338350   -8.89184166  -11.22258844
     atom    3 type  1   force =    -9.60566081   -2.12515617  -10.17965277
     atom    4 type  2   force =     3.93324346    4.32164877    7.54207713
     atom    5 type  3   force =     0.77450611    4.09274345    5.93615944
     atom    6 type  4   force =    -0.09960125    2.38338726    2.49773638
     atom    7 type  3   force =     4.25116942    0.99636943    8.52099136
     atom    8 type  4   force =     1.60697163    0.62835617    3.56999546
     atom    9 type  3   force =     5.78562380   -3.31016299    6.00864452
     atom   10 type  4   force =     2.61292112   -1.79013584    2.38473597
     atom   11 type  3   force =     1.20633687   -1.52155525   -0.04583680
     atom   12 type  3   force =    -1.46349913   -2.49076328   -6.27271044
     atom   13 type  4   force =    -1.03703173   -1.21335227   -3.52057109
     atom   14 type  3   force =    -0.33993939    0.38005290   -0.81745086
     atom   15 type  3   force =     0.33759294   -2.35865983   -3.88470504
     atom   16 type  4   force =    -0.42373373   -1.36768464   -3.37152133
     atom   17 type  3   force =     1.24486632    0.74316877    3.26807430
     atom   18 type  4   force =     0.85767943    0.89526241    3.02778148
     atom   19 type  3   force =     0.75752749   -0.16388638    1.28705222
     atom   20 type  3   force =     0.73132257   -0.82059772   -0.73198131
     atom   21 type  3   force =    -0.72625516    1.23108504   -8.20419844
     atom   22 type  4   force =    -0.15256651    0.23689179   -4.00686291
     atom   23 type  3   force =    -2.00124867    3.69578290   -6.83104581
     atom   24 type  4   force =    -1.08875745    2.01482375   -3.11110989
     atom   25 type  3   force =     0.31582610    1.03780229    1.00806214
     atom   26 type  3   force =     0.75842499    0.00599531    8.51605801
     atom   27 type  4   force =     0.07113068    0.21254141    3.99041233
     atom   28 type  3   force =     2.17553637   -2.67416148    6.56616161
     atom   29 type  4   force =     1.09020759   -1.58941553    3.07223226
     atom   30 type  3   force =    -4.29128913   -0.63957180   -3.23155700
     atom   31 type  4   force =    -1.90869688   -1.56466237   -2.57974440
     atom   32 type  3   force =     0.11687220   -0.39089573   -0.11288207
     atom   33 type  3   force =    -3.07553422   -2.85160916   -5.16897770
     atom   34 type  4   force =    -1.50547528   -1.81178425   -2.97182240
     atom   35 type  3   force =    -1.55501616    1.22713212    0.02351990
     atom   36 type  3   force =    -2.84443693    7.04028785    4.91706085
     atom   37 type  4   force =    -1.62521210    3.10603132    1.86246757
     atom   38 type  3   force =     1.70117740    6.01680097    7.54011616
     atom   39 type  4   force =     0.89477725    2.33891452    3.10969756
     atom   40 type  3   force =     4.74899506    2.10917450    5.96170552
     atom   41 type  4   force =     2.68078229    0.31826920    2.46232527
     atom   42 type  3   force =     6.41716771   -8.25197795    0.86771244
     atom   43 type  4   force =     1.15390548   -3.09721240   -1.86831225
     atom   44 type  4   force =    -0.08418439   -2.62169778    2.45673921
     atom   45 type  4   force =     3.60099695   -0.03580272    0.36004592
     atom   46 type  3   force =    -8.31527826    6.44943762    0.16001248
     atom   47 type  4   force =    -3.24875265    0.71572203   -1.82086592
     atom   48 type  4   force =    -0.08626670    3.59558884   -0.40001152
     atom   49 type  4   force =    -2.44904048    0.43963105    2.63108494
     The local contribution  to forces
     atom    1 type  1   force =     1.72774728    4.06205708   16.66110968
     atom    2 type  1   force =    -1.10980596    8.36425558    8.85357810
     atom    3 type  1   force =     8.94558757    0.68472488    8.10655730
     atom    4 type  2   force =    -3.30189766   -3.56995394   -6.24646946
     atom    5 type  3   force =    -0.74690103   -4.11766111   -5.92040612
     atom    6 type  4   force =     0.07566508   -2.31569430   -2.45790278
     atom    7 type  3   force =    -4.29093153   -0.96121767   -8.55078347
     atom    8 type  4   force =    -1.57739420   -0.61019729   -3.49522762
     atom    9 type  3   force =    -5.79325596    3.34951320   -5.97004727
     atom   10 type  4   force =    -2.55783515    1.74198165   -2.34671126
     atom   11 type  3   force =    -1.36593160    1.97049388    0.31996176
     atom   12 type  3   force =     1.43327405    2.52910331    6.25297967
     atom   13 type  4   force =     1.00927995    1.19360423    3.44540105
     atom   14 type  3   force =     0.40350394   -0.42556006    0.87228302
     atom   15 type  3   force =    -0.42946780    2.46123817    3.84272143
     atom   16 type  4   force =     0.40358969    1.34775846    3.29296906
     atom   17 type  3   force =    -1.18383067   -0.83142935   -3.30038597
     atom   18 type  4   force =    -0.84355073   -0.86894595   -2.95159017
     atom   19 type  3   force =    -0.74518974    0.17173793   -1.23231794
     atom   20 type  3   force =    -0.77040390    0.85154305    0.72285286
     atom   21 type  3   force =     0.72336311   -1.23846645    8.16854605
     atom   22 type  4   force =     0.16105912   -0.25127261    3.92429035
     atom   23 type  3   force =     2.02351353   -3.73497992    6.80430618
     atom   24 type  4   force =     1.05332307   -1.96239920    3.05853960
     atom   25 type  3   force =    -0.19092053   -1.30166516   -1.12392721
     atom   26 type  3   force =    -0.72515958    0.01172152   -8.50754687
     atom   27 type  4   force =    -0.07807501   -0.19916492   -3.90893672
     atom   28 type  3   force =    -2.18656522    2.71136599   -6.58035058
     atom   29 type  4   force =    -1.05332281    1.53906710   -3.01810041
     atom   30 type  3   force =     4.24423474    0.60653631    3.16188826
     atom   31 type  4   force =     1.87794872    1.52218877    2.51889206
     atom   32 type  3   force =    -0.14227682    0.47434883    0.17661862
     atom   33 type  3   force =     3.10126980    2.82380329    5.17147447
     atom   34 type  4   force =     1.48042980    1.76727528    2.90755781
     atom   35 type  3   force =     2.01558386   -1.31929441    0.25358696
     atom   36 type  3   force =     2.89262401   -7.03681447   -4.87862964
     atom   37 type  4   force =     1.57944955   -3.04306216   -1.83522451
     atom   38 type  3   force =    -1.65964808   -6.06517419   -7.55581202
     atom   39 type  4   force =    -0.87197501   -2.29296090   -3.04507707
     atom   40 type  3   force =    -4.72004663   -2.08462787   -5.91760699
     atom   41 type  4   force =    -2.60859532   -0.33717669   -2.42422378
     atom   42 type  3   force =    -6.07789959    7.91680380   -0.68416822
     atom   43 type  4   force =    -1.14258476    3.03646399    1.81309452
     atom   44 type  4   force =     0.05698742    2.58941789   -2.38820183
     atom   45 type  4   force =    -3.53035870    0.07207557   -0.34681450
     atom   46 type  3   force =     7.98433113   -6.07939062   -0.02907195
     atom   47 type  4   force =     3.18414114   -0.71691661    1.76900119
     atom   48 type  4   force =     0.12185628   -3.52350735    0.39497370
     atom   49 type  4   force =     2.42209766   -0.45144919   -2.55608878
     The core correction contribution to forces
     atom    1 type  1   force =     0.00000000    0.00000000    0.00000000
     atom    2 type  1   force =     0.00000000    0.00000000    0.00000000
     atom    3 type  1   force =     0.00000000    0.00000000    0.00000000
     atom    4 type  2   force =     0.00000000    0.00000000    0.00000000
     atom    5 type  3   force =     0.00000000    0.00000000    0.00000000
     atom    6 type  4   force =     0.00000000    0.00000000    0.00000000
     atom    7 type  3   force =     0.00000000    0.00000000    0.00000000
     atom    8 type  4   force =     0.00000000    0.00000000    0.00000000
     atom    9 type  3   force =     0.00000000    0.00000000    0.00000000
     atom   10 type  4   force =     0.00000000    0.00000000    0.00000000
     atom   11 type  3   force =     0.00000000    0.00000000    0.00000000
     atom   12 type  3   force =     0.00000000    0.00000000    0.00000000
     atom   13 type  4   force =     0.00000000    0.00000000    0.00000000
     atom   14 type  3   force =     0.00000000    0.00000000    0.00000000
     atom   15 type  3   force =     0.00000000    0.00000000    0.00000000
     atom   16 type  4   force =     0.00000000    0.00000000    0.00000000
     atom   17 type  3   force =     0.00000000    0.00000000    0.00000000
     atom   18 type  4   force =     0.00000000    0.00000000    0.00000000
     atom   19 type  3   force =     0.00000000    0.00000000    0.00000000
     atom   20 type  3   force =     0.00000000    0.00000000    0.00000000
     atom   21 type  3   force =     0.00000000    0.00000000    0.00000000
     atom   22 type  4   force =     0.00000000    0.00000000    0.00000000
     atom   23 type  3   force =     0.00000000    0.00000000    0.00000000
     atom   24 type  4   force =     0.00000000    0.00000000    0.00000000
     atom   25 type  3   force =     0.00000000    0.00000000    0.00000000
     atom   26 type  3   force =     0.00000000    0.00000000    0.00000000
     atom   27 type  4   force =     0.00000000    0.00000000    0.00000000
     atom   28 type  3   force =     0.00000000    0.00000000    0.00000000
     atom   29 type  4   force =     0.00000000    0.00000000    0.00000000
     atom   30 type  3   force =     0.00000000    0.00000000    0.00000000
     atom   31 type  4   force =     0.00000000    0.00000000    0.00000000
     atom   32 type  3   force =     0.00000000    0.00000000    0.00000000
     atom   33 type  3   force =     0.00000000    0.00000000    0.00000000
     atom   34 type  4   force =     0.00000000    0.00000000    0.00000000
     atom   35 type  3   force =     0.00000000    0.00000000    0.00000000
     atom   36 type  3   force =     0.00000000    0.00000000    0.00000000
     atom   37 type  4   force =     0.00000000    0.00000000    0.00000000
     atom   38 type  3   force =     0.00000000    0.00000000    0.00000000
     atom   39 type  4   force =     0.00000000    0.00000000    0.00000000
     atom   40 type  3   force =     0.00000000    0.00000000    0.00000000
     atom   41 type  4   force =     0.00000000    0.00000000    0.00000000
     atom   42 type  3   force =     0.00000000    0.00000000    0.00000000
     atom   43 type  4   force =     0.00000000    0.00000000    0.00000000
     atom   44 type  4   force =     0.00000000    0.00000000    0.00000000
     atom   45 type  4   force =     0.00000000    0.00000000    0.00000000
     atom   46 type  3   force =     0.00000000    0.00000000    0.00000000
     atom   47 type  4   force =     0.00000000    0.00000000    0.00000000
     atom   48 type  4   force =     0.00000000    0.00000000    0.00000000
     atom   49 type  4   force =     0.00000000    0.00000000    0.00000000
     The Hubbard contrib.    to forces
     atom    1 type  1   force =     0.00000000    0.00000000    0.00000000
     atom    2 type  1   force =     0.00000000    0.00000000    0.00000000
     atom    3 type  1   force =     0.00000000    0.00000000    0.00000000
     atom    4 type  2   force =     0.00000000    0.00000000    0.00000000
     atom    5 type  3   force =     0.00000000    0.00000000    0.00000000
     atom    6 type  4   force =     0.00000000    0.00000000    0.00000000
     atom    7 type  3   force =     0.00000000    0.00000000    0.00000000
     atom    8 type  4   force =     0.00000000    0.00000000    0.00000000
     atom    9 type  3   force =     0.00000000    0.00000000    0.00000000
     atom   10 type  4   force =     0.00000000    0.00000000    0.00000000
     atom   11 type  3   force =     0.00000000    0.00000000    0.00000000
     atom   12 type  3   force =     0.00000000    0.00000000    0.00000000
     atom   13 type  4   force =     0.00000000    0.00000000    0.00000000
     atom   14 type  3   force =     0.00000000    0.00000000    0.00000000
     atom   15 type  3   force =     0.00000000    0.00000000    0.00000000
     atom   16 type  4   force =     0.00000000    0.00000000    0.00000000
     atom   17 type  3   force =     0.00000000    0.00000000    0.00000000
     atom   18 type  4   force =     0.00000000    0.00000000    0.00000000
     atom   19 type  3   force =     0.00000000    0.00000000    0.00000000
     atom   20 type  3   force =     0.00000000    0.00000000    0.00000000
     atom   21 type  3   force =     0.00000000    0.00000000    0.00000000
     atom   22 type  4   force =     0.00000000    0.00000000    0.00000000
     atom   23 type  3   force =     0.00000000    0.00000000    0.00000000
     atom   24 type  4   force =     0.00000000    0.00000000    0.00000000
     atom   25 type  3   force =     0.00000000    0.00000000    0.00000000
     atom   26 type  3   force =     0.00000000    0.00000000    0.00000000
     atom   27 type  4   force =     0.00000000    0.00000000    0.00000000
     atom   28 type  3   force =     0.00000000    0.00000000    0.00000000
     atom   29 type  4   force =     0.00000000    0.00000000    0.00000000
     atom   30 type  3   force =     0.00000000    0.00000000    0.00000000
     atom   31 type  4   force =     0.00000000    0.00000000    0.00000000
     atom   32 type  3   force =     0.00000000    0.00000000    0.00000000
     atom   33 type  3   force =     0.00000000    0.00000000    0.00000000
     atom   34 type  4   force =     0.00000000    0.00000000    0.00000000
     atom   35 type  3   force =     0.00000000    0.00000000    0.00000000
     atom   36 type  3   force =     0.00000000    0.00000000    0.00000000
     atom   37 type  4   force =     0.00000000    0.00000000    0.00000000
     atom   38 type  3   force =     0.00000000    0.00000000    0.00000000
     atom   39 type  4   force =     0.00000000    0.00000000    0.00000000
     atom   40 type  3   force =     0.00000000    0.00000000    0.00000000
     atom   41 type  4   force =     0.00000000    0.00000000    0.00000000
     atom   42 type  3   force =     0.00000000    0.00000000    0.00000000
     atom   43 type  4   force =     0.00000000    0.00000000    0.00000000
     atom   44 type  4   force =     0.00000000    0.00000000    0.00000000
     atom   45 type  4   force =     0.00000000    0.00000000    0.00000000
     atom   46 type  3   force =     0.00000000    0.00000000    0.00000000
     atom   47 type  4   force =     0.00000000    0.00000000    0.00000000
     atom   48 type  4   force =     0.00000000    0.00000000    0.00000000
     atom   49 type  4   force =     0.00000000    0.00000000    0.00000000
     The SCF correction term to forces
[...]
     atom   39 type  4   force =     0.89629458    2.34262806    3.11497449
     atom   40 type  3   force =     4.74718644    2.10868863    5.96183377
     atom   41 type  4   force =     2.68691973    0.31653217    2.46541290
     atom   42 type  3   force =     6.41325567   -8.25876936    0.85711226
     atom   43 type  4   force =     1.15529707   -3.10416250   -1.87520765
     atom   44 type  4   force =    -0.08523841   -2.62403621    2.46180778
     atom   45 type  4   force =     3.60511973   -0.03437980    0.36124432
     atom   46 type  3   force =    -8.32334013    6.45135824    0.15491406
     atom   47 type  4   force =    -3.25687319    0.71574026   -1.82695535
     atom   48 type  4   force =    -0.08415878    3.60125091   -0.39970728
     atom   49 type  4   force =    -2.45098453    0.43969646    2.63609918
     The local contribution  to forces
     atom    1 type  1   force =     1.73748297    4.08314929   16.74495171
     atom    2 type  1   force =    -1.12214190    8.37009081    8.84614940
     atom    3 type  1   force =     8.93917711    0.68180793    8.09711000
     atom    4 type  2   force =    -3.30999134   -3.55287676   -6.23953746
     atom    5 type  3   force =    -0.74849835   -4.11767005   -5.91781785
     atom    6 type  4   force =     0.07717846   -2.31902771   -2.46027522
     atom    7 type  3   force =    -4.29043160   -0.95601631   -8.54808949
     atom    8 type  4   force =    -1.57935078   -0.61082704   -3.49901053
     atom    9 type  3   force =    -5.79150501    3.34263963   -5.97346218
     atom   10 type  4   force =    -2.56141286    1.74444981   -2.35023728
     atom   11 type  3   force =    -1.35731278    1.96125602    0.31843051
     atom   12 type  3   force =     1.43700068    2.52479708    6.25596887
     atom   13 type  4   force =     1.01128485    1.19472924    3.45025562
     atom   14 type  3   force =     0.41002346   -0.42759472    0.87681514
     atom   15 type  3   force =    -0.44231506    2.47516621    3.84016181
     atom   16 type  4   force =     0.40362364    1.35008332    3.29630089
     atom   17 type  3   force =    -1.17258801   -0.84797501   -3.30192976
     atom   18 type  4   force =    -0.84213787   -0.87156191   -2.95453845
     atom   19 type  3   force =    -0.75491348    0.14830353   -1.32458573
     atom   20 type  3   force =    -0.77676954    0.86018422    0.71711493
     atom   21 type  3   force =     0.72694174   -1.24275448    8.16921312
     atom   22 type  4   force =     0.16076113   -0.25103772    3.92885016
     atom   23 type  3   force =     2.02027973   -3.73494564    6.80306160
     atom   24 type  4   force =     1.05564108   -1.96497239    3.06181576
     atom   25 type  3   force =    -0.19883294   -1.31091527   -1.13109937
     atom   26 type  3   force =    -0.72599367    0.01356051   -8.50886451
     atom   27 type  4   force =    -0.07777025   -0.20033114   -3.91348777
     atom   28 type  3   force =    -2.18754454    2.71290943   -6.57791516
     atom   29 type  4   force =    -1.05628461    1.54185790   -3.02027710
     atom   30 type  3   force =     4.26453928    0.58631831    3.15843705
     atom   31 type  4   force =     1.87946571    1.52286525    2.52014411
     atom   32 type  3   force =    -0.14356623    0.47592986    0.17933034
     atom   33 type  3   force =     3.10213796    2.82532913    5.17117249
     atom   34 type  4   force =     1.48212371    1.76971094    2.91151537
     atom   35 type  3   force =     2.01124176   -1.31381218    0.25875283
     atom   36 type  3   force =     2.88691579   -7.03275763   -4.88096032
     atom   37 type  4   force =     1.58175035   -3.04730042   -1.83767704
     atom   38 type  3   force =    -1.65711856   -6.06444150   -7.55050887
     atom   39 type  4   force =    -0.87278386   -2.29538850   -3.04849456
     atom   40 type  3   force =    -4.71807511   -2.08455889   -5.91790049
     atom   41 type  4   force =    -2.61257401   -0.33604686   -2.42621441
     atom   42 type  3   force =    -6.07383535    7.92276527   -0.67391632
     atom   43 type  4   force =    -1.14376762    3.04100448    1.81741808
     atom   44 type  4   force =     0.05750918    2.59080902   -2.39162310
     atom   45 type  4   force =    -3.53306862    0.07107150   -0.34773032
     atom   46 type  3   force =     7.99177543   -6.08113434   -0.02440284
     atom   47 type  4   force =     3.18966145   -0.71713853    1.77282973
     atom   48 type  4   force =     0.12037682   -3.52729096    0.39456460
     atom   49 type  4   force =     2.42326801   -0.45156818   -2.55954294
     The core correction contribution to forces
     atom    1 type  1   force =     0.00000000    0.00000000    0.00000000
     atom    2 type  1   force =     0.00000000    0.00000000    0.00000000
     atom    3 type  1   force =     0.00000000    0.00000000    0.00000000
     atom    4 type  2   force =     0.00000000    0.00000000    0.00000000
     atom    5 type  3   force =     0.00000000    0.00000000    0.00000000
     atom    6 type  4   force =     0.00000000    0.00000000    0.00000000
     atom    7 type  3   force =     0.00000000    0.00000000    0.00000000
     atom    8 type  4   force =     0.00000000    0.00000000    0.00000000
     atom    9 type  3   force =     0.00000000    0.00000000    0.00000000
     atom   10 type  4   force =     0.00000000    0.00000000    0.00000000
     atom   11 type  3   force =     0.00000000    0.00000000    0.00000000
     atom   12 type  3   force =     0.00000000    0.00000000    0.00000000
     atom   13 type  4   force =     0.00000000    0.00000000    0.00000000
     atom   14 type  3   force =     0.00000000    0.00000000    0.00000000
     atom   15 type  3   force =     0.00000000    0.00000000    0.00000000
     atom   16 type  4   force =     0.00000000    0.00000000    0.00000000
     atom   17 type  3   force =     0.00000000    0.00000000    0.00000000
     atom   18 type  4   force =     0.00000000    0.00000000    0.00000000
     atom   19 type  3   force =     0.00000000    0.00000000    0.00000000
     atom   20 type  3   force =     0.00000000    0.00000000    0.00000000
     atom   21 type  3   force =     0.00000000    0.00000000    0.00000000
     atom   22 type  4   force =     0.00000000    0.00000000    0.00000000
     atom   23 type  3   force =     0.00000000    0.00000000    0.00000000
     atom   24 type  4   force =     0.00000000    0.00000000    0.00000000
     atom   25 type  3   force =     0.00000000    0.00000000    0.00000000
     atom   26 type  3   force =     0.00000000    0.00000000    0.00000000
     atom   27 type  4   force =     0.00000000    0.00000000    0.00000000
     atom   28 type  3   force =     0.00000000    0.00000000    0.00000000
     atom   29 type  4   force =     0.00000000    0.00000000    0.00000000
     atom   30 type  3   force =     0.00000000    0.00000000    0.00000000
     atom   31 type  4   force =     0.00000000    0.00000000    0.00000000
     atom   32 type  3   force =     0.00000000    0.00000000    0.00000000
     atom   33 type  3   force =     0.00000000    0.00000000    0.00000000
     atom   34 type  4   force =     0.00000000    0.00000000    0.00000000
     atom   35 type  3   force =     0.00000000    0.00000000    0.00000000
     atom   36 type  3   force =     0.00000000    0.00000000    0.00000000
     atom   37 type  4   force =     0.00000000    0.00000000    0.00000000
     atom   38 type  3   force =     0.00000000    0.00000000    0.00000000
     atom   39 type  4   force =     0.00000000    0.00000000    0.00000000
     atom   40 type  3   force =     0.00000000    0.00000000    0.00000000
     atom   41 type  4   force =     0.00000000    0.00000000    0.00000000
     atom   42 type  3   force =     0.00000000    0.00000000    0.00000000
     atom   43 type  4   force =     0.00000000    0.00000000    0.00000000
     atom   44 type  4   force =     0.00000000    0.00000000    0.00000000
     atom   45 type  4   force =     0.00000000    0.00000000    0.00000000
     atom   46 type  3   force =     0.00000000    0.00000000    0.00000000
     atom   47 type  4   force =     0.00000000    0.00000000    0.00000000
     atom   48 type  4   force =     0.00000000    0.00000000    0.00000000
     atom   49 type  4   force =     0.00000000    0.00000000    0.00000000
     The Hubbard contrib.    to forces
     atom    1 type  1   force =     0.00000000    0.00000000    0.00000000
     atom    2 type  1   force =     0.00000000    0.00000000    0.00000000
     atom    3 type  1   force =     0.00000000    0.00000000    0.00000000
     atom    4 type  2   force =     0.00000000    0.00000000    0.00000000
     atom    5 type  3   force =     0.00000000    0.00000000    0.00000000
     atom    6 type  4   force =     0.00000000    0.00000000    0.00000000
     atom    7 type  3   force =     0.00000000    0.00000000    0.00000000
     atom    8 type  4   force =     0.00000000    0.00000000    0.00000000
     atom    9 type  3   force =     0.00000000    0.00000000    0.00000000
     atom   10 type  4   force =     0.00000000    0.00000000    0.00000000
     atom   11 type  3   force =     0.00000000    0.00000000    0.00000000
     atom   12 type  3   force =     0.00000000    0.00000000    0.00000000
     atom   13 type  4   force =     0.00000000    0.00000000    0.00000000
     atom   14 type  3   force =     0.00000000    0.00000000    0.00000000
     atom   15 type  3   force =     0.00000000    0.00000000    0.00000000
     atom   16 type  4   force =     0.00000000    0.00000000    0.00000000
     atom   17 type  3   force =     0.00000000    0.00000000    0.00000000
     atom   18 type  4   force =     0.00000000    0.00000000    0.00000000
     atom   19 type  3   force =     0.00000000    0.00000000    0.00000000
     atom   20 type  3   force =     0.00000000    0.00000000    0.00000000
     atom   21 type  3   force =     0.00000000    0.00000000    0.00000000
     atom   22 type  4   force =     0.00000000    0.00000000    0.00000000
     atom   23 type  3   force =     0.00000000    0.00000000    0.00000000
     atom   24 type  4   force =     0.00000000    0.00000000    0.00000000
     atom   25 type  3   force =     0.00000000    0.00000000    0.00000000
     atom   26 type  3   force =     0.00000000    0.00000000    0.00000000
     atom   27 type  4   force =     0.00000000    0.00000000    0.00000000
     atom   28 type  3   force =     0.00000000    0.00000000    0.00000000
     atom   29 type  4   force =     0.00000000    0.00000000    0.00000000
     atom   30 type  3   force =     0.00000000    0.00000000    0.00000000
     atom   31 type  4   force =     0.00000000    0.00000000    0.00000000
     atom   32 type  3   force =     0.00000000    0.00000000    0.00000000
     atom   33 type  3   force =     0.00000000    0.00000000    0.00000000
     atom   34 type  4   force =     0.00000000    0.00000000    0.00000000
     atom   35 type  3   force =     0.00000000    0.00000000    0.00000000
     atom   36 type  3   force =     0.00000000    0.00000000    0.00000000
     atom   37 type  4   force =     0.00000000    0.00000000    0.00000000
     atom   38 type  3   force =     0.00000000    0.00000000    0.00000000
     atom   39 type  4   force =     0.00000000    0.00000000    0.00000000
     atom   40 type  3   force =     0.00000000    0.00000000    0.00000000
     atom   41 type  4   force =     0.00000000    0.00000000    0.00000000
     atom   42 type  3   force =     0.00000000    0.00000000    0.00000000
     atom   43 type  4   force =     0.00000000    0.00000000    0.00000000
     atom   44 type  4   force =     0.00000000    0.00000000    0.00000000
     atom   45 type  4   force =     0.00000000    0.00000000    0.00000000
     atom   46 type  3   force =     0.00000000    0.00000000    0.00000000
     atom   47 type  4   force =     0.00000000    0.00000000    0.00000000
     atom   48 type  4   force =     0.00000000    0.00000000    0.00000000
     atom   49 type  4   force =     0.00000000    0.00000000    0.00000000
     The SCF correction term to forces
     atom    1 type  1   force =     0.00023062    0.00004162    0.00083893
     atom    2 type  1   force =    -0.00009052    0.00035832    0.00030975
     atom    3 type  1   force =     0.00001917    0.00016108    0.00021493
     atom    4 type  2   force =     0.00027471   -0.00021827    0.00012982
     atom    5 type  3   force =    -0.00009370    0.00015570    0.00006564
     atom    6 type  4   force =    -0.00003484    0.00005064    0.00000930
     atom    7 type  3   force =     0.00003106   -0.00001570    0.00005939
     atom    8 type  4   force =     0.00000545    0.00001216    0.00002836
     atom    9 type  3   force =    -0.00005598   -0.00008992   -0.00019485
     atom   10 type  4   force =     0.00000577   -0.00001608   -0.00000699
     atom   11 type  3   force =    -0.00007950    0.00013941    0.00005090
     atom   12 type  3   force =     0.00010478   -0.00015175    0.00002202
     atom   13 type  4   force =     0.00000404    0.00000205    0.00001485
     atom   14 type  3   force =    -0.00015309    0.00008169   -0.00013122
     atom   15 type  3   force =    -0.00023107    0.00030055    0.00005105
     atom   16 type  4   force =    -0.00001953    0.00004390    0.00004173
     atom   17 type  3   force =    -0.00021464    0.00019460   -0.00007767
     atom   18 type  4   force =    -0.00004437    0.00001193   -0.00006781
     atom   19 type  3   force =     0.00018606   -0.00008095    0.00036006
     atom   20 type  3   force =     0.00027462   -0.00024925    0.00016304
     atom   21 type  3   force =     0.00012873   -0.00007425    0.00016435
     atom   22 type  4   force =     0.00002282   -0.00001260    0.00000852
     atom   23 type  3   force =     0.00006973    0.00001824    0.00029980
     atom   24 type  4   force =     0.00000691    0.00001813    0.00002217
     atom   25 type  3   force =     0.00001875    0.00008639    0.00030400
     atom   26 type  3   force =     0.00000821    0.00006426   -0.00001255
     atom   27 type  4   force =     0.00000081    0.00000783   -0.00004115
     atom   28 type  3   force =     0.00008580   -0.00002906    0.00004862
     atom   29 type  4   force =     0.00000293    0.00000895   -0.00004007
     atom   30 type  3   force =     0.00032319   -0.00010215    0.00022193
     atom   31 type  4   force =     0.00003357   -0.00002586    0.00002478
     atom   32 type  3   force =     0.00024160    0.00001993    0.00024791
     atom   33 type  3   force =    -0.00000340    0.00008408    0.00011625
     atom   34 type  4   force =    -0.00000725   -0.00002136   -0.00002011
     atom   35 type  3   force =     0.00012523    0.00006295    0.00018915
     atom   36 type  3   force =     0.00007416   -0.00003293    0.00004368
     atom   37 type  4   force =    -0.00000211    0.00001143    0.00001305
     atom   38 type  3   force =     0.00016397   -0.00007744    0.00007203
     atom   39 type  4   force =     0.00001856   -0.00002111   -0.00000359
     atom   40 type  3   force =     0.00014279    0.00002200    0.00016405
     atom   41 type  4   force =    -0.00000737   -0.00000409   -0.00000388
     atom   42 type  3   force =     0.00014679   -0.00010830    0.00013732
     atom   43 type  4   force =     0.00002043   -0.00001674    0.00001734
     atom   44 type  4   force =     0.00001508   -0.00000705    0.00000640
     atom   45 type  4   force =     0.00000728   -0.00001306    0.00001133
     atom   46 type  3   force =    -0.00014793    0.00019889    0.00010411
     atom   47 type  4   force =    -0.00001368    0.00002686    0.00001915
     atom   48 type  4   force =    -0.00002217    0.00001095    0.00001264
     atom   49 type  4   force =    -0.00001172    0.00002336    0.00000001

     Total force =     0.020872     Total SCF correction =     0.001687
     Energy error            =      1.3E-04 Ry
     Gradient error          =      1.3E-02 Ry/Bohr

     number of scf cycles    =   2
     number of bfgs steps    =   1

     energy             old  =    -413.7030863143 Ry
     energy             new  =    -413.7032118808 Ry

     CASE: energy            _new < energy            _old

     new trust radius        =       0.0075255070 bohr
     new conv_thr            =       0.0000000100 Ry


ATOMIC_POSITIONS (angstrom)
O            16.3876216910       12.9955565900       12.1260229126
O            20.8184060722        7.5361131041       13.6088831916
O             8.4044609246       20.5183944568       14.4819030899
N            13.4587281148       17.5439498478       15.4545485103
C            19.5857313588       10.9183887621       15.6406989784
H            19.2629234782       11.8102753854       16.1582640961
C            20.5046182442       10.0795968703       16.2303534777
H            20.8945623975       10.3156092200       17.2118273279
C            20.9506447116        8.9276733083       15.5885019884
H            21.6719278273        8.2903151343       16.0770091404
C            20.4595519107        8.6233636918       14.3261030209
C            19.5348309335        9.4713872323       13.7237779863
H            19.1674729796        9.2181570543       12.7387730840
C            19.0842030348       10.6175381951       14.3672858652
C            18.1100702111       11.4522372939       13.6783815361
H            17.8668839112       11.1662985829       12.6598909346
C            17.4766256980       12.5267804006       14.1576341209
H            17.6550499103       12.8767085399       15.1634230528
C            16.5286043922       13.2723712895       13.3035961664
C            15.7476463383       14.3899263039       13.9047407825
C            15.0839932389       15.2597994145       13.0413192243
H            15.1841202055       15.0937796526       11.9775139442
C            14.3289900770       16.3049284716       13.5275381891
H            13.8543033375       16.9957687909       12.8434928959
C            14.2010028864       16.5016628475       14.9065992728
C            14.8799775369       15.6468583058       15.7738624281
H            14.7919537262       15.8140000804       16.8380385309
C            15.6343157610       14.6021772482       15.2786664236
H            16.1238296975       13.9406937175       15.9790634089
C            12.3414765996       17.8636445384       14.9427273235
H            11.9164847055       17.2948713778       14.1076841314
C            11.5333342380       18.9800040472       15.4251341525
C            10.3436757461       19.2633678968       14.7709686188
H            10.0223909879       18.6708783228       13.9245700944
C             9.5390169885       20.3193926022       15.1901331307
C             9.9310837163       21.0875611611       16.2787986320
H             9.3237048811       21.9095226245       16.6261701050
C            11.1260401990       20.7937016838       16.9313603350
H            11.4205145296       21.3989646300       17.7785722262
C            11.9300210664       19.7551404815       16.5181060203
H            12.8581121198       19.5218966659       17.0190246861
C            21.7565092658        6.6510022938       14.1732574657
H            21.9024231931        5.8570077447       13.4477147098
H            21.3876617272        6.2212366899       15.1075134174
H            22.7116895111        7.1487418264       14.3582425354
C             7.5427448336       21.5525769277       14.8922059705
H             6.6981211740       21.5330146333       14.2109161287
H             8.0318183218       22.5274738400       14.8308678929
H             7.1864065884       21.3915132201       15.9124338428



     Writing config-only to output data dir ./outdir/4amp15iso.save/
     NEW-OLD atomic charge density approx. for the potential

     negative rho (up, down):  7.389E-05 0.000E+00

     total cpu time spent up to now is     5433.2 secs
