 DBCSR| CPU Multiplication driver                                           XSMM (U)
 DBCSR| Multrec recursion limit                                              512 (U)
 DBCSR| Multiplication stack size                                           1000 (D)
 DBCSR| Maximum elements for images                                    UNLIMITED (U)
 DBCSR| Multiplicative factor virtual images                                   1 (U)
 DBCSR| Use multiplication densification                                       T (D)
 DBCSR| Multiplication size stacks                                             3 (U)
 DBCSR| Use memory pool for CPU allocation                                     F (U)
 DBCSR| Number of 3D layers                                               SINGLE (U)
 DBCSR| Use MPI memory allocation                                              F (U)
 DBCSR| Use RMA algorithm                                                      F (U)
 DBCSR| Use Communication thread                                               T (U)
 DBCSR| Communication thread load                                             83 (D)
 DBCSR| MPI: My process id                                                     0
 DBCSR| MPI: Number of processes                                              90
 DBCSR| OMP: Current number of threads                                         2
 DBCSR| OMP: Max number of threads                                             2
 DBCSR| Split modifier for TAS multiplication algorithm                  1.0E+00 (U)


  **** **** ******  **  PROGRAM STARTED AT               2024-03-04 17:11:37.765
 ***** ** ***  *** **   PROGRAM STARTED ON                          fcdcc7f72a76
 **    ****   ******    PROGRAM STARTED BY                             <unknown>
 ***** **    ** ** **   PROGRAM PROCESS ID                                   538
  **** **  *******  **  PROGRAM STARTED IN                                  /mnt

 CP2K| version string:                                       CP2K version 2023.2
 CP2K| source code revision number:                                  git:65cca6c
 CP2K| cp2kflags: omp libint fftw3 libxc pexsi elpa parallel scalapack cosma qui
 CP2K|            p xsmm plumed2 spglib sirius libvori libbqb libtorch libvdwxc
 CP2K| is freely available from                            https://www.cp2k.org/
 CP2K| Program compiled at                          Wed Oct 18 11:40:41 UTC 2023
 CP2K| Program compiled on                                          633bb7bf566f
 CP2K| Program compiled for                                                local
 CP2K| Data directory path                                        /opt/cp2k/data
 CP2K| Input file name                                      4amp33_188solvent.in

 GLOBAL| Force Environment number                                              1
 GLOBAL| Basis set file name                                      GTH_BASIS_SETS
 GLOBAL| Potential file name                                           POTENTIAL
 GLOBAL| MM Potential file name                                     MM_POTENTIAL
 GLOBAL| Coordinate file name                                      __STD_INPUT__
 GLOBAL| Method name                                                        CP2K
 GLOBAL| Project name                                          4amp33_188solvent
 GLOBAL| Run type                                                         ENERGY
 GLOBAL| FFT library                                                       FFTW3
 GLOBAL| Diagonalization library                                       ScaLAPACK
 GLOBAL| DGEMM library                                                      BLAS
 GLOBAL| Orthonormality check for eigenvectors                          DISABLED
 GLOBAL| Matrix multiplication library                                     COSMA
 GLOBAL| All-to-all communication in single precision                          F
 GLOBAL| FFTs using library dependent lengths                                  F
 GLOBAL| Grid backend                                                       AUTO
 GLOBAL| Global print level                                                  LOW
 GLOBAL| MPI I/O enabled                                                       T
 GLOBAL| Total number of message passing processes                            90
 GLOBAL| Number of threads for this process                                    2
 GLOBAL| This output is from process                                           0
 GLOBAL| Stack size for threads created by OpenMP (OMP_STACKSIZE)            16M
 GLOBAL| CPU model name                                            AMD EPYC 9B14
 GLOBAL| CPUID                                                              1003
 GLOBAL| Compiled for CPUID                                                    0

 *** HINT in environment.F:904 :: The compiler target flags (generic) used ***
 *** to build this binary cannot exploit all extensions of this CPU model  ***
 *** (x86_avx512). Consider compiler target flags as part of FCFLAGS and   ***
 *** CFLAGS (ARCH file).                                                   ***


 MEMORY| system memory details [Kb]
 MEMORY|                        rank 0           min           max       average
 MEMORY| MemTotal            365023368     365023368     365023368     365023368
 MEMORY| MemFree             351320056     351319800     351320056     351319802
 MEMORY| Buffers                 24960         24960         24960         24960
 MEMORY| Cached                 846828        846828        846828        846828
 MEMORY| Slab                   495836        495828        495836        495828
 MEMORY| SReclaimable           102652        102652        102652        102652
 MEMORY| MemLikelyFree       352294496     352294240     352294496     352294242


 GENERATE|  Preliminary Number of Bonds generated:                             0
 GENERATE|  Achieved consistency in connectivity generation.

 *******************************************************************************
 *******************************************************************************
 **                                                                           **
 **     #####                         ##              ##                      **
 **    ##   ##            ##          ##              ##                      **
 **   ##     ##                       ##            ######                    **
 **   ##     ##  ##   ##  ##   #####  ##  ##   ####   ##    #####    #####    **
 **   ##     ##  ##   ##  ##  ##      ## ##   ##      ##   ##   ##  ##   ##   **
 **   ##  ## ##  ##   ##  ##  ##      ####     ###    ##   ######   ######    **
 **    ##  ###   ##   ##  ##  ##      ## ##      ##   ##   ##       ##        **
 **     #######   #####   ##   #####  ##  ##  ####    ##    #####   ##        **
 **           ##                                                    ##        **
 **                                                                           **
 **                                                ... make the atoms dance   **
 **                                                                           **
 **            Copyright (C) by CP2K developers group (2000-2023)             **
 **                      J. Chem. Phys. 152, 194103 (2020)                    **
 **                                                                           **
 *******************************************************************************


 TOTAL NUMBERS AND MAXIMUM NUMBERS

  Total number of            - Atomic kinds:                                   5
                             - Atoms:                                        188
                             - Shell sets:                                   376
                             - Shells:                                      1136
                             - Primitive Cartesian functions:               1128
                             - Cartesian basis functions:                   2664
                             - Spherical basis functions:                   2536

  Maximum angular momentum of- Orbital basis functions:                        2
                             - Local part of the GTH pseudopotential:          2
                             - Non-local part of the GTH pseudopotential:      0


 SCF PARAMETERS         Density guess:                                    ATOMIC
                        --------------------------------------------------------
                        max_scf:                                             128
                        max_scf_history:                                       0
                        max_diis:                                              4
                        --------------------------------------------------------
                        eps_scf:                                        1.00E-06
                        eps_scf_history:                                0.00E+00
                        eps_diis:                                       1.00E-01
                        eps_eigval:                                     1.00E-05
                        --------------------------------------------------------
                        level_shift [a.u.]:                             0.000000
                        added MOs                                        30    0
                        --------------------------------------------------------
                        Mixing method:                            BROYDEN_MIXING
                                                charge density mixing in g-space
                        --------------------------------------------------------
                        No outer SCF

 Number of electrons:                                                        656
 Number of occupied orbitals:                                                328
 Number of molecular orbitals:                                               358

 Number of orbital functions:                                               2536
 Number of independent orbital functions:                                   2536

 Extrapolation method: initial_guess


 SCF WAVEFUNCTION OPTIMIZATION

  Step     Update method      Time    Convergence         Total energy    Change
  ------------------------------------------------------------------------------
     1 NoMix/Diag. 0.40E+00    1.1    10.96338209     -1265.9749205875 -1.27E+03
     2 Broy./Diag. 0.40E+00    1.7     1.59803689     -1198.1717306725  6.78E+01
     3 Broy./Diag. 0.40E+00    1.7     0.93880336     -1251.4570452285 -5.33E+01
  SCCS| Iteration cycle converged in 42 steps
  SCCS|
  SCCS| Polarisation charge                                      -0.024061933174
  SCCS|
  SCCS| Hartree energy of solute and solvent [Hartree]       1287.30566820558352
  SCCS| Hartree energy of the solute only    [Hartree]       1287.30775503552695
  SCCS| Polarisation energy                  [Hartree]         -0.00208682994325
  SCCS|                                      [kcal/mol]                   -1.310
  SCCS| Cavitation energy                    [Hartree]          0.00125420272200
  SCCS|                                      [kcal/mol]                    0.787
  SCCS| Dispersion free energy               [Hartree]         -0.22046025550061
  SCCS|                                      [kcal/mol]                 -138.341
  SCCS| Repulsion free energy                [Hartree]          0.00034023950833
  SCCS|                                      [kcal/mol]                    0.214
  SCCS| Solvation free energy                [Hartree]         -0.22095264321353
  SCCS|                                      [kcal/mol]                 -138.650
     4 Broy./Diag. 0.40E+00    3.8     0.57230712     -1264.4049356965 -1.29E+01
  SCCS| Iteration cycle converged in 47 steps
  SCCS|
  SCCS| Polarisation charge                                      -0.037001656402
  SCCS|
  SCCS| Hartree energy of solute and solvent [Hartree]       1288.07552759078658
  SCCS| Hartree energy of the solute only    [Hartree]       1288.04499852504523
  SCCS| Polarisation energy                  [Hartree]          0.03052906574122
  SCCS|                                      [kcal/mol]                   19.157
  SCCS| Cavitation energy                    [Hartree]          0.00170681946090
  SCCS|                                      [kcal/mol]                    1.071
  SCCS| Dispersion free energy               [Hartree]         -0.22036328650827
  SCCS|                                      [kcal/mol]                 -138.280
  SCCS| Repulsion free energy                [Hartree]          0.00046302515853
  SCCS|                                      [kcal/mol]                    0.291
  SCCS| Solvation free energy                [Hartree]         -0.18766437614763
  SCCS|                                      [kcal/mol]                 -117.761
     5 Broy./Diag. 0.40E+00    4.1     0.43380785     -1269.4315042982 -5.03E+00
  SCCS| Iteration cycle converged in 48 steps
  SCCS|
  SCCS| Polarisation charge                                      -0.047389892721
  SCCS|
  SCCS| Hartree energy of solute and solvent [Hartree]       1288.77952238215994
  SCCS| Hartree energy of the solute only    [Hartree]       1288.71978243356671
  SCCS| Polarisation energy                  [Hartree]          0.05973994859322
  SCCS|                                      [kcal/mol]                   37.487
  SCCS| Cavitation energy                    [Hartree]          0.00214586489123
  SCCS|                                      [kcal/mol]                    1.347
  SCCS| Dispersion free energy               [Hartree]         -0.22027591637210
  SCCS|                                      [kcal/mol]                 -138.225
  SCCS| Repulsion free energy                [Hartree]          0.00058212919070
  SCCS|                                      [kcal/mol]                    0.365
  SCCS| Solvation free energy                [Hartree]         -0.15780797369696
  SCCS|                                      [kcal/mol]                  -99.026
     6 Broy./Diag. 0.40E+00    4.1     0.15978104     -1268.2552221479  1.18E+00
  SCCS| Iteration cycle converged in 50 steps
  SCCS|
  SCCS| Polarisation charge                                      -0.056281218719
  SCCS|
  SCCS| Hartree energy of solute and solvent [Hartree]       1289.03786578247082
  SCCS| Hartree energy of the solute only    [Hartree]       1288.95089426021968
  SCCS| Polarisation energy                  [Hartree]          0.08697152225132
  SCCS|                                      [kcal/mol]                   54.575
  SCCS| Cavitation energy                    [Hartree]          0.00247519131245
  SCCS|                                      [kcal/mol]                    1.553
  SCCS| Dispersion free energy               [Hartree]         -0.22021519841288
  SCCS|                                      [kcal/mol]                 -138.187
  SCCS| Repulsion free energy                [Hartree]          0.00067146870310
  SCCS|                                      [kcal/mol]                    0.421
  SCCS| Solvation free energy                [Hartree]         -0.13009701614602
  SCCS|                                      [kcal/mol]                  -81.637
     7 Broy./Diag. 0.40E+00    4.3     0.06930764     -1267.7478467915  5.07E-01
  SCCS| Iteration cycle converged in 51 steps
  SCCS|
  SCCS| Polarisation charge                                      -0.062930446649
  SCCS|
  SCCS| Hartree energy of solute and solvent [Hartree]       1289.14933070887560
  SCCS| Hartree energy of the solute only    [Hartree]       1289.04124203822403
  SCCS| Polarisation energy                  [Hartree]          0.10808867065155
  SCCS|                                      [kcal/mol]                   67.827
  SCCS| Cavitation energy                    [Hartree]          0.00274902151806
  SCCS|                                      [kcal/mol]                    1.725
  SCCS| Dispersion free energy               [Hartree]         -0.22016759850353
  SCCS|                                      [kcal/mol]                 -138.157
  SCCS| Repulsion free energy                [Hartree]          0.00074575322895
  SCCS|                                      [kcal/mol]                    0.468
  SCCS| Solvation free energy                [Hartree]         -0.10858415310497
  SCCS|                                      [kcal/mol]                  -68.138
     8 Broy./Diag. 0.40E+00    4.4     0.04204407     -1267.5967871504  1.51E-01
  SCCS| Iteration cycle converged in 50 steps
  SCCS|
  SCCS| Polarisation charge                                      -0.064971021453
  SCCS|
  SCCS| Hartree energy of solute and solvent [Hartree]       1289.14001260948748
  SCCS| Hartree energy of the solute only    [Hartree]       1289.02519091103295
  SCCS| Polarisation energy                  [Hartree]          0.11482169845448
  SCCS|                                      [kcal/mol]                   72.052
  SCCS| Cavitation energy                    [Hartree]          0.00294203092185
  SCCS|                                      [kcal/mol]                    1.846
  SCCS| Dispersion free energy               [Hartree]         -0.22013614957458
  SCCS|                                      [kcal/mol]                 -138.138
  SCCS| Repulsion free energy                [Hartree]          0.00079811272674
  SCCS|                                      [kcal/mol]                    0.501
  SCCS| Solvation free energy                [Hartree]         -0.10157430747150
  SCCS|                                      [kcal/mol]                  -63.739
     9 Broy./Diag. 0.40E+00    4.2     0.02326343     -1267.6062087586 -9.42E-03
  SCCS| Iteration cycle converged in 50 steps
  SCCS|
  SCCS| Polarisation charge                                      -0.060238484996
  SCCS|
  SCCS| Hartree energy of solute and solvent [Hartree]       1289.10503235488318
  SCCS| Hartree energy of the solute only    [Hartree]       1289.00579825427599
  SCCS| Polarisation energy                  [Hartree]          0.09923410060718
  SCCS|                                      [kcal/mol]                   62.270
  SCCS| Cavitation energy                    [Hartree]          0.00299056730547
  SCCS|                                      [kcal/mol]                    1.877
  SCCS| Dispersion free energy               [Hartree]         -0.22012861210274
  SCCS|                                      [kcal/mol]                 -138.133
  SCCS| Repulsion free energy                [Hartree]          0.00081127965343
  SCCS|                                      [kcal/mol]                    0.509
  SCCS| Solvation free energy                [Hartree]         -0.11709266453666
  SCCS|                                      [kcal/mol]                  -73.477
    10 Broy./Diag. 0.40E+00    4.3     0.01806468     -1267.6635799580 -5.74E-02
  SCCS| Iteration cycle converged in 49 steps
  SCCS|
  SCCS| Polarisation charge                                      -0.056308947766
  SCCS|
  SCCS| Hartree energy of solute and solvent [Hartree]       1289.09836009312085
  SCCS| Hartree energy of the solute only    [Hartree]       1289.01218772745551
  SCCS| Polarisation energy                  [Hartree]          0.08617236566516
  SCCS|                                      [kcal/mol]                   54.074
  SCCS| Cavitation energy                    [Hartree]          0.00296950515414
  SCCS|                                      [kcal/mol]                    1.863
  SCCS| Dispersion free energy               [Hartree]         -0.22013178633162
  SCCS|                                      [kcal/mol]                 -138.135
  SCCS| Repulsion free energy                [Hartree]          0.00080556592320
  SCCS|                                      [kcal/mol]                    0.506
  SCCS| Solvation free energy                [Hartree]         -0.13018434958912
  SCCS|                                      [kcal/mol]                  -81.692
    11 Broy./Diag. 0.40E+00    4.2     0.01072803     -1267.6810628643 -1.75E-02
  SCCS| Iteration cycle converged in 48 steps
  SCCS|
  SCCS| Polarisation charge                                      -0.043334283345
  SCCS|
  SCCS| Hartree energy of solute and solvent [Hartree]       1289.07468059493522
  SCCS| Hartree energy of the solute only    [Hartree]       1289.03201626880491
  SCCS| Polarisation energy                  [Hartree]          0.04266432613047
  SCCS|                                      [kcal/mol]                   26.772
  SCCS| Cavitation energy                    [Hartree]          0.00296288345526
  SCCS|                                      [kcal/mol]                    1.859
  SCCS| Dispersion free energy               [Hartree]         -0.22013240265409
  SCCS|                                      [kcal/mol]                 -138.135
  SCCS| Repulsion free energy                [Hartree]          0.00080376959193
  SCCS|                                      [kcal/mol]                    0.504
  SCCS| Solvation free energy                [Hartree]         -0.17370142347644
  SCCS|                                      [kcal/mol]                 -108.999
    12 Broy./Diag. 0.40E+00    4.2     0.03551493     -1267.6992878795 -1.82E-02
  SCCS| Iteration cycle converged in 47 steps
  SCCS|
  SCCS| Polarisation charge                                      -0.046909802728
  SCCS|
  SCCS| Hartree energy of solute and solvent [Hartree]       1289.07320165034980
  SCCS| Hartree energy of the solute only    [Hartree]       1289.01856546392059
  SCCS| Polarisation energy                  [Hartree]          0.05463618642917
  SCCS|                                      [kcal/mol]                   34.285
  SCCS| Cavitation energy                    [Hartree]          0.00300890406254
  SCCS|                                      [kcal/mol]                    1.888
  SCCS| Dispersion free energy               [Hartree]         -0.22012558826262
  SCCS|                                      [kcal/mol]                 -138.131
  SCCS| Repulsion free energy                [Hartree]          0.00081625404003
  SCCS|                                      [kcal/mol]                    0.512
  SCCS| Solvation free energy                [Hartree]         -0.16166424373088
  SCCS|                                      [kcal/mol]                 -101.446
    13 Broy./Diag. 0.40E+00    4.3     0.01178854     -1267.7149787130 -1.57E-02
  SCCS| Iteration cycle converged in 45 steps
  SCCS|
  SCCS| Polarisation charge                                      -0.047795774380
  SCCS|
  SCCS| Hartree energy of solute and solvent [Hartree]       1289.07457744867179
  SCCS| Hartree energy of the solute only    [Hartree]       1289.01705890003154
  SCCS| Polarisation energy                  [Hartree]          0.05751854864026
  SCCS|                                      [kcal/mol]                   36.093
  SCCS| Cavitation energy                    [Hartree]          0.00301062083538
  SCCS|                                      [kcal/mol]                    1.889
  SCCS| Dispersion free energy               [Hartree]         -0.22012565019214
  SCCS|                                      [kcal/mol]                 -138.131
  SCCS| Repulsion free energy                [Hartree]          0.00081671976534
  SCCS|                                      [kcal/mol]                    0.512
  SCCS| Solvation free energy                [Hartree]         -0.15877976095116
  SCCS|                                      [kcal/mol]                  -99.636
    14 Broy./Diag. 0.40E+00    4.0     0.00332161     -1267.7109862777  3.99E-03
  SCCS| Iteration cycle converged in 46 steps
  SCCS|
  SCCS| Polarisation charge                                      -0.049366039161
  SCCS|
  SCCS| Hartree energy of solute and solvent [Hartree]       1289.07764358117311
  SCCS| Hartree energy of the solute only    [Hartree]       1289.01495867641279
  SCCS| Polarisation energy                  [Hartree]          0.06268490476052
  SCCS|                                      [kcal/mol]                   39.335
  SCCS| Cavitation energy                    [Hartree]          0.00301338929261
  SCCS|                                      [kcal/mol]                    1.891
  SCCS| Dispersion free energy               [Hartree]         -0.22012554935378
  SCCS|                                      [kcal/mol]                 -138.131
  SCCS| Repulsion free energy                [Hartree]          0.00081747079108
  SCCS|                                      [kcal/mol]                    0.513
  SCCS| Solvation free energy                [Hartree]         -0.15360978450956
  SCCS|                                      [kcal/mol]                  -96.392
    15 Broy./Diag. 0.40E+00    4.1     0.00511181     -1267.7059552676  5.03E-03
  SCCS| Iteration cycle converged in 45 steps
  SCCS|
  SCCS| Polarisation charge                                      -0.050137951343
  SCCS|
  SCCS| Hartree energy of solute and solvent [Hartree]       1289.07855573063102
  SCCS| Hartree energy of the solute only    [Hartree]       1289.01334158384066
  SCCS| Polarisation energy                  [Hartree]          0.06521414679055
  SCCS|                                      [kcal/mol]                   40.922
  SCCS| Cavitation energy                    [Hartree]          0.00301134997987
  SCCS|                                      [kcal/mol]                    1.890
  SCCS| Dispersion free energy               [Hartree]         -0.22012599477946
  SCCS|                                      [kcal/mol]                 -138.131
  SCCS| Repulsion free energy                [Hartree]          0.00081691756730
  SCCS|                                      [kcal/mol]                    0.513
  SCCS| Solvation free energy                [Hartree]         -0.15108358044174
  SCCS|                                      [kcal/mol]                  -94.806
    16 Broy./Diag. 0.40E+00    4.0     0.00242271     -1267.7023123474  3.64E-03
  SCCS| Iteration cycle converged in 44 steps
  SCCS|
  SCCS| Polarisation charge                                      -0.050444471123
  SCCS|
  SCCS| Hartree energy of solute and solvent [Hartree]       1289.07920428421426
  SCCS| Hartree energy of the solute only    [Hartree]       1289.01300296874342
  SCCS| Polarisation energy                  [Hartree]          0.06620131547053
  SCCS|                                      [kcal/mol]                   41.542
  SCCS| Cavitation energy                    [Hartree]          0.00300940473158
  SCCS|                                      [kcal/mol]                    1.888
  SCCS| Dispersion free energy               [Hartree]         -0.22012630712447
  SCCS|                                      [kcal/mol]                 -138.131
  SCCS| Repulsion free energy                [Hartree]          0.00081638986128
  SCCS|                                      [kcal/mol]                    0.512
  SCCS| Solvation free energy                [Hartree]         -0.15009919706108
  SCCS|                                      [kcal/mol]                  -94.189
    17 Broy./Diag. 0.40E+00    4.0     0.00084502     -1267.7013043777  1.01E-03
  SCCS| Iteration cycle converged in 41 steps
  SCCS|
  SCCS| Polarisation charge                                      -0.050404229005
  SCCS|
  SCCS| Hartree energy of solute and solvent [Hartree]       1289.07909736955162
  SCCS| Hartree energy of the solute only    [Hartree]       1289.01305264817483
  SCCS| Polarisation energy                  [Hartree]          0.06604472137654
  SCCS|                                      [kcal/mol]                   41.444
  SCCS| Cavitation energy                    [Hartree]          0.00300750330691
  SCCS|                                      [kcal/mol]                    1.887
  SCCS| Dispersion free energy               [Hartree]         -0.22012657060775
  SCCS|                                      [kcal/mol]                 -138.132
  SCCS| Repulsion free energy                [Hartree]          0.00081587404372
  SCCS|                                      [kcal/mol]                    0.512
  SCCS| Solvation free energy                [Hartree]         -0.15025847188058
  SCCS|                                      [kcal/mol]                  -94.289
    18 Broy./Diag. 0.40E+00    3.9     0.00020411     -1267.7009626748  3.42E-04
  SCCS| Iteration cycle converged in 42 steps
  SCCS|
  SCCS| Polarisation charge                                      -0.050338924786
  SCCS|
  SCCS| Hartree energy of solute and solvent [Hartree]       1289.07901828234208
  SCCS| Hartree energy of the solute only    [Hartree]       1289.01320239800771
  SCCS| Polarisation energy                  [Hartree]          0.06581588433420
  SCCS|                                      [kcal/mol]                   41.300
  SCCS| Cavitation energy                    [Hartree]          0.00300673198502
  SCCS|                                      [kcal/mol]                    1.887
  SCCS| Dispersion free energy               [Hartree]         -0.22012665567616
  SCCS|                                      [kcal/mol]                 -138.132
  SCCS| Repulsion free energy                [Hartree]          0.00081566479989
  SCCS|                                      [kcal/mol]                    0.512
  SCCS| Solvation free energy                [Hartree]         -0.15048837455705
  SCCS|                                      [kcal/mol]                  -94.433
    19 Broy./Diag. 0.40E+00    3.9     0.00024122     -1267.7011760717 -2.13E-04
  SCCS| Iteration cycle converged in 40 steps
  SCCS|
  SCCS| Polarisation charge                                      -0.050319340022
  SCCS|
  SCCS| Hartree energy of solute and solvent [Hartree]       1289.07896905056623
  SCCS| Hartree energy of the solute only    [Hartree]       1289.01322468823014
  SCCS| Polarisation energy                  [Hartree]          0.06574436233630
  SCCS|                                      [kcal/mol]                   41.255
  SCCS| Cavitation energy                    [Hartree]          0.00300661296730
  SCCS|                                      [kcal/mol]                    1.887
  SCCS| Dispersion free energy               [Hartree]         -0.22012665050179
  SCCS|                                      [kcal/mol]                 -138.132
  SCCS| Repulsion free energy                [Hartree]          0.00081563251282
  SCCS|                                      [kcal/mol]                    0.512
  SCCS| Solvation free energy                [Hartree]         -0.15056004268536
  SCCS|                                      [kcal/mol]                  -94.478
    20 Broy./Diag. 0.40E+00    3.8     0.00008234     -1267.7013078823 -1.32E-04
  SCCS| Iteration cycle converged in 38 steps
  SCCS|
  SCCS| Polarisation charge                                      -0.050323822417
  SCCS|
  SCCS| Hartree energy of solute and solvent [Hartree]       1289.07896483136437
  SCCS| Hartree energy of the solute only    [Hartree]       1289.01320792033562
  SCCS| Polarisation energy                  [Hartree]          0.06575691102878
  SCCS|                                      [kcal/mol]                   41.263
  SCCS| Cavitation energy                    [Hartree]          0.00300668402347
  SCCS|                                      [kcal/mol]                    1.887
  SCCS| Dispersion free energy               [Hartree]         -0.22012663082704
  SCCS|                                      [kcal/mol]                 -138.132
  SCCS| Repulsion free energy                [Hartree]          0.00081565178890
  SCCS|                                      [kcal/mol]                    0.512
  SCCS| Solvation free energy                [Hartree]         -0.15054738398589
  SCCS|                                      [kcal/mol]                  -94.470
    21 Broy./Diag. 0.40E+00    3.7     0.00002539     -1267.7013680808 -6.02E-05
  SCCS| Iteration cycle converged in 37 steps
  SCCS|
  SCCS| Polarisation charge                                      -0.050324576102
  SCCS|
  SCCS| Hartree energy of solute and solvent [Hartree]       1289.07896607866860
  SCCS| Hartree energy of the solute only    [Hartree]       1289.01320746152032
  SCCS| Polarisation energy                  [Hartree]          0.06575861714824
  SCCS|                                      [kcal/mol]                   41.264
  SCCS| Cavitation energy                    [Hartree]          0.00300672970007
  SCCS|                                      [kcal/mol]                    1.887
  SCCS| Dispersion free energy               [Hartree]         -0.22012662056061
  SCCS|                                      [kcal/mol]                 -138.132
  SCCS| Repulsion free energy                [Hartree]          0.00081566418003
  SCCS|                                      [kcal/mol]                    0.512
  SCCS| Solvation free energy                [Hartree]         -0.15054560953227
  SCCS|                                      [kcal/mol]                  -94.469
    22 Broy./Diag. 0.40E+00    3.7     0.00001149     -1267.7013765070 -8.43E-06
  SCCS| Iteration cycle converged in 37 steps
  SCCS|
  SCCS| Polarisation charge                                      -0.050326100725
  SCCS|
  SCCS| Hartree energy of solute and solvent [Hartree]       1289.07897109228634
  SCCS| Hartree energy of the solute only    [Hartree]       1289.01320786704127
  SCCS| Polarisation energy                  [Hartree]          0.06576322524510
  SCCS|                                      [kcal/mol]                   41.267
  SCCS| Cavitation energy                    [Hartree]          0.00300675022660
  SCCS|                                      [kcal/mol]                    1.887
  SCCS| Dispersion free energy               [Hartree]         -0.22012661607915
  SCCS|                                      [kcal/mol]                 -138.132
  SCCS| Repulsion free energy                [Hartree]          0.00081566974846
  SCCS|                                      [kcal/mol]                    0.512
  SCCS| Solvation free energy                [Hartree]         -0.15054097085900
  SCCS|                                      [kcal/mol]                  -94.466
    23 Broy./Diag. 0.40E+00    3.7     0.00000851     -1267.7013729599  3.55E-06
  SCCS| Iteration cycle converged in 35 steps
  SCCS|
  SCCS| Polarisation charge                                      -0.050326524309
  SCCS|
  SCCS| Hartree energy of solute and solvent [Hartree]       1289.07897392084897
  SCCS| Hartree energy of the solute only    [Hartree]       1289.01320943016867
  SCCS| Polarisation energy                  [Hartree]          0.06576449068036
  SCCS|                                      [kcal/mol]                   41.268
  SCCS| Cavitation energy                    [Hartree]          0.00300675303759
  SCCS|                                      [kcal/mol]                    1.887
  SCCS| Dispersion free energy               [Hartree]         -0.22012661526189
  SCCS|                                      [kcal/mol]                 -138.132
  SCCS| Repulsion free energy                [Hartree]          0.00081567051102
  SCCS|                                      [kcal/mol]                    0.512
  SCCS| Solvation free energy                [Hartree]         -0.15053970103292
  SCCS|                                      [kcal/mol]                  -94.465
    24 Broy./Diag. 0.40E+00    3.5     0.00000217     -1267.7013696190  3.34E-06
  SCCS| Iteration cycle converged in 34 steps
  SCCS|
  SCCS| Polarisation charge                                      -0.050326484068
  SCCS|
  SCCS| Hartree energy of solute and solvent [Hartree]       1289.07897376904839
  SCCS| Hartree energy of the solute only    [Hartree]       1289.01320941115591
  SCCS| Polarisation energy                  [Hartree]          0.06576435789239
  SCCS|                                      [kcal/mol]                   41.268
  SCCS| Cavitation energy                    [Hartree]          0.00300675201502
  SCCS|                                      [kcal/mol]                    1.887
  SCCS| Dispersion free energy               [Hartree]         -0.22012661539097
  SCCS|                                      [kcal/mol]                 -138.132
  SCCS| Repulsion free energy                [Hartree]          0.00081567023362
  SCCS|                                      [kcal/mol]                    0.512
  SCCS| Solvation free energy                [Hartree]         -0.15053983524994
  SCCS|                                      [kcal/mol]                  -94.465
    25 Broy./Diag. 0.40E+00    3.5     0.00000147     -1267.7013688262  7.93E-07
  SCCS| Iteration cycle converged in 35 steps
  SCCS|
  SCCS| Polarisation charge                                      -0.050326431213
  SCCS|
  SCCS| Hartree energy of solute and solvent [Hartree]       1289.07897354024453
  SCCS| Hartree energy of the solute only    [Hartree]       1289.01320936226239
  SCCS| Polarisation energy                  [Hartree]          0.06576417798203
  SCCS|                                      [kcal/mol]                   41.268
  SCCS| Cavitation energy                    [Hartree]          0.00300675218170
  SCCS|                                      [kcal/mol]                    1.887
  SCCS| Dispersion free energy               [Hartree]         -0.22012661531664
  SCCS|                                      [kcal/mol]                 -138.132
  SCCS| Repulsion free energy                [Hartree]          0.00081567027884
  SCCS|                                      [kcal/mol]                    0.512
  SCCS| Solvation free energy                [Hartree]         -0.15054001487407
  SCCS|                                      [kcal/mol]                  -94.465
    26 Broy./Diag. 0.40E+00    3.6     0.00000144     -1267.7013690635 -2.37E-07
  SCCS| Iteration cycle converged in 35 steps
  SCCS|
  SCCS| Polarisation charge                                      -0.050326502895
  SCCS|
  SCCS| Hartree energy of solute and solvent [Hartree]       1289.07897381545126
  SCCS| Hartree energy of the solute only    [Hartree]       1289.01320941691938
  SCCS| Polarisation energy                  [Hartree]          0.06576439853199
  SCCS|                                      [kcal/mol]                   41.268
  SCCS| Cavitation energy                    [Hartree]          0.00300675369143
  SCCS|                                      [kcal/mol]                    1.887
  SCCS| Dispersion free energy               [Hartree]         -0.22012661500726
  SCCS|                                      [kcal/mol]                 -138.132
  SCCS| Repulsion free energy                [Hartree]          0.00081567068839
  SCCS|                                      [kcal/mol]                    0.512
  SCCS| Solvation free energy                [Hartree]         -0.15053979209544
  SCCS|                                      [kcal/mol]                  -94.465
    27 Broy./Diag. 0.40E+00    3.6     0.00000177     -1267.7013689195  1.44E-07
  SCCS| Iteration cycle converged in 33 steps
  SCCS|
  SCCS| Polarisation charge                                      -0.050326676334
  SCCS|
  SCCS| Hartree energy of solute and solvent [Hartree]       1289.07897453979922
  SCCS| Hartree energy of the solute only    [Hartree]       1289.01320959476516
  SCCS| Polarisation energy                  [Hartree]          0.06576494503417
  SCCS|                                      [kcal/mol]                   41.268
  SCCS| Cavitation energy                    [Hartree]          0.00300675350167
  SCCS|                                      [kcal/mol]                    1.887
  SCCS| Dispersion free energy               [Hartree]         -0.22012661499235
  SCCS|                                      [kcal/mol]                 -138.132
  SCCS| Repulsion free energy                [Hartree]          0.00081567063692
  SCCS|                                      [kcal/mol]                    0.512
  SCCS| Solvation free energy                [Hartree]         -0.15053924581959
  SCCS|                                      [kcal/mol]                  -94.465
    28 Broy./Diag. 0.40E+00    3.5     0.00000065     -1267.7013679781  9.41E-07

  *** SCF run converged in    28 steps ***


  Electronic density on regular grids:       -655.9999999809        0.0000000191
  Core density on regular grids:              655.9999999996       -0.0000000004
  Total charge density on r-space grids:        0.0000000187
  Total charge density g-space grids:           0.0000000187

  Overlap energy of the core charge distribution:               0.00003836573212
  Self energy of the core charge distribution:              -3173.79488751330928
  Core Hamiltonian energy:                                    941.87382483714009
  Hartree energy:                                            1289.01320959476516
  Exchange-correlation energy:                               -324.35415188439839
  Dispersion energy:                                           -0.50516632303517

  SCCS| Hartree energy of solute and solvent [Hartree]       1289.07897453979922
  SCCS| Hartree energy of the solute only    [Hartree]       1289.01320959476516
  SCCS| Polarisation energy                  [Hartree]          0.06576494503417
  SCCS|                                      [kcal/mol]                   41.268
  SCCS| Cavitation energy                    [Hartree]          0.00300675350167
  SCCS|                                      [kcal/mol]                    1.887
  SCCS| Dispersion free energy               [Hartree]         -0.22012661499235
  SCCS|                                      [kcal/mol]                 -138.132
  SCCS| Repulsion free energy                [Hartree]          0.00081567063692
  SCCS|                                      [kcal/mol]                    0.512
  SCCS| Solvation free energy                [Hartree]         -0.15053924581959
  SCCS|                                      [kcal/mol]                  -94.465

  Total energy:                                             -1267.70136797807140

   Calculate DOS at iteration step                                   0
  
  Eigenvalues of the occupied subspace spin            1
 ---------------------------------------------
      -0.98274403      -0.98274228      -0.98260812      -0.98260609
      -0.97579211      -0.97577152      -0.97577003      -0.97575215
      -0.90563082      -0.90562943      -0.90560888      -0.90560838
      -0.90006313      -0.90004098      -0.89926488      -0.89922361
      -0.89881562      -0.89881228      -0.89847827      -0.89845952
      -0.89293145      -0.89293101      -0.89279649      -0.89279456
      -0.72201869      -0.72201683      -0.72197448      -0.72197362
      -0.65424730      -0.65403787      -0.65358903      -0.65337285
      -0.59091197      -0.59052455      -0.58946441      -0.58923514
      -0.58432935      -0.58418633      -0.58409093      -0.58393400
      -0.57077775      -0.56932359      -0.56719220      -0.56588796
      -0.52685785      -0.52682177      -0.52613791      -0.52596265
      -0.51624822      -0.51586476      -0.51570286      -0.51491461
      -0.48731730      -0.48685930      -0.48682605      -0.48647033
      -0.47787839      -0.47779537      -0.47775668      -0.47762051
      -0.47255858      -0.47165349      -0.47129273      -0.47124740
      -0.46997850      -0.46976528      -0.46922126      -0.46901341
      -0.46868762      -0.46841492      -0.46791926      -0.46763028
      -0.43542151      -0.43310271      -0.43302093      -0.43208791
      -0.41947052      -0.41920343      -0.41793305      -0.41706570
      -0.39068081      -0.38959668      -0.38918799      -0.38786903
      -0.36971413      -0.36831240      -0.36738856      -0.36701296
      -0.35692411      -0.35583353      -0.35580241      -0.35578974
      -0.35176166      -0.35148500      -0.35118388      -0.35080056
      -0.34507931      -0.34489500      -0.34486118      -0.34439470
      -0.34175428      -0.34152705      -0.34150808      -0.34149106
      -0.31939478      -0.31883703      -0.31827850      -0.31767166
      -0.31151757      -0.31128074      -0.30895643      -0.30886226
      -0.30751181      -0.30660564      -0.30652043      -0.30633910
      -0.30483695      -0.30288557      -0.30253807      -0.30150805
      -0.30118562      -0.30091718      -0.30020260      -0.29995442
      -0.29903065      -0.29847087      -0.29595326      -0.29594527
      -0.29583662      -0.29488710      -0.29455024      -0.29296253
      -0.28898535      -0.28774240      -0.28688082      -0.28569861
      -0.27522838      -0.27522512      -0.27246417      -0.27222355
      -0.25740890      -0.25705665      -0.25642607      -0.25634587
      -0.24196354      -0.24182987      -0.24037551      -0.24037212
      -0.23319274      -0.23243918      -0.23182615      -0.23175994
      -0.21484929      -0.21451516      -0.21407101      -0.21404186
      -0.20616031      -0.20547357      -0.20525044      -0.20401743
      -0.20131304      -0.20065743      -0.20030957      -0.19888368
      -0.19825729      -0.19729333      -0.19640454      -0.19561003
      -0.19283623      -0.19185860      -0.19124480      -0.19116224
      -0.19098870      -0.18989163      -0.18778704      -0.18773841
      -0.18772837      -0.18652418      -0.18618119      -0.18558723
      -0.18445448      -0.18411389      -0.18370048      -0.18334279
      -0.18307687      -0.18282575      -0.18279196      -0.18118938
      -0.18055481      -0.17849378      -0.17839098      -0.17813617
      -0.17805518      -0.17753514      -0.17565208      -0.17516424
      -0.17450323      -0.17433806      -0.17391638      -0.17354879
      -0.17084040      -0.17031784      -0.17003022      -0.16823408
      -0.16735308      -0.16540270      -0.16487743      -0.16253193
      -0.16238248      -0.16095077      -0.15849046      -0.15752219
      -0.15701589      -0.15385889      -0.15249200      -0.15222916
      -0.15159897      -0.15137914      -0.14869919      -0.14793631
      -0.14779211      -0.14765889      -0.14763257      -0.14713843
      -0.14516242      -0.14506729      -0.14504091      -0.14499453
      -0.14424344      -0.14386968      -0.14331473      -0.14182559
      -0.14092617      -0.14032208      -0.13954739      -0.13853490
      -0.13812565      -0.13770575      -0.13658625      -0.13409264
      -0.13338895      -0.13321249      -0.13303341      -0.13298063
      -0.13076947      -0.13030405      -0.13019937      -0.13010233
      -0.12894879      -0.12721619      -0.12444122      -0.12431687
      -0.12362235      -0.12319273      -0.12276285      -0.12195236
      -0.12103692      -0.11912981      -0.11880046      -0.11856393
      -0.11620093      -0.11570564      -0.11490456      -0.11445547
      -0.11295372      -0.11228683      -0.11081040      -0.11031769
      -0.10534712      -0.10221316      -0.10211366      -0.10191648
      -0.10188561      -0.09877046      -0.09819059      -0.09741130
      -0.09701309      -0.09607547      -0.09466663      -0.09310457
      -0.09204362      -0.09004292      -0.08933991      -0.08879436
      -0.08693678      -0.08673604      -0.08625530      -0.08593088
      -0.08357975      -0.08163116      -0.07836583      -0.07451789
      -0.06447826      -0.06443485      -0.06399911      -0.06315503
      -0.05374628      -0.04772583      -0.04614352      -0.04212148
      -0.04190128      -0.04047770      -0.03651230      -0.03610981
      -0.03387352      -0.03165077      -0.02593852      -0.02583042
      -0.02571878      -0.02518922      -0.02471557      -0.02092988
      -0.01956846      -0.01922938      -0.01856761      -0.01640406
      -0.00297569      -0.00230684      -0.00200126      -0.00187604
       0.00287890       0.00516203       0.00702812       0.00730048
       0.00962263       0.00984875       0.01000653       0.01254441
 Fermi Energy [eV] :    0.341351
  
  Lowest eigenvalues of the unoccupied subspace spin            1
 ---------------------------------------------
       0.09295905

 *******************************************************************************
 **                                                                           **
 **         ######## #######   #######   ######## #######  ########           **
 **            ##    ##     ## ##     ## ##       ##   ##     ##              **
 **            ##    ##     ## ##     ## ######   #######     ##              **
 **            ##    ##     ## ##     ## ##       ##          ##              **
 **            ##    #######   #######   ##       ##          ##              **
 **                                                                           **
 *******************************************************************************
 KERNEL|                                                                    FULL
 FUNCTIONAL| PBE:
 FUNCTIONAL| J.P.Perdew, K.Burke, M.Ernzerhof, Phys. Rev. Letter, vol. 77, n 18,
 FUNCTIONAL|  pp. 3865-3868, (1996){spin unpolarized}                           
 KERNEL| Spin symmetry of excitations                                    Singlet
 TDDFPT| Number of states calculated                                         500
 TDDFPT| Number of Davidson iterations                                       100
 TDDFPT| Davidson iteration convergence                                0.367E-05
 TDDFPT| Max. number of Krylov space vectors                                5000
 TDDFPT| Molecular Orbitals:        Spin       AOs       Occ      Virt     Total
 TDDFPT|                               1      2536       328      2208      2536
 
 -------------------------------------------------------------------------------
 -                            TDDFPT Initial Guess                             -
 -------------------------------------------------------------------------------
          State         Occupied      ->      Virtual          Excitation
          number         orbital              orbital          energy (eV)
 -------------------------------------------------------------------------------
             1              328                  329              2.18819
             2              328                  330              2.24080
             3              327                  329              2.25725
             4              326                  329              2.26155
             5              325                  329              2.26770
             6              327                  330              2.30986
             7              326                  330              2.31415
             8              325                  330              2.32030
             9              324                  329              2.33089
            10              323                  329              2.33830
            11              328                  331              2.36696
            12              324                  330              2.38349
            13              328                  332              2.38645
            14              322                  329              2.38908
            15              323                  330              2.39090
            16              327                  331              2.43602
            17              326                  331              2.44031
            18              322                  330              2.44168
            19              325                  331              2.44647
            20              321                  329              2.45121
            21              327                  332              2.45551
            22              326                  332              2.45980
            23              325                  332              2.46595
            24              321                  330              2.50381
            25              324                  331              2.50965
            26              323                  331              2.51707
            27              324                  332              2.52914
            28              323                  332              2.53655
            29              322                  331              2.56785
            30              320                  329              2.58059
            31              319                  329              2.58400
            32              322                  332              2.58733
            33              318                  329              2.59232
            34              317                  329              2.61052
            35              321                  331              2.62997
            36              320                  330              2.63320
            37              319                  330              2.63660
            38              318                  330              2.64492
            39              321                  332              2.64946
            40              317                  330              2.66312
            41              320                  331              2.75936
            42              328                  333              2.76040
            43              319                  331              2.76277
            44              318                  331              2.77108
            45              320                  332              2.77885
            46              319                  332              2.78225
            47              317                  331              2.78928
            48              318                  332              2.79057
            49              317                  332              2.80877
            50              327                  333              2.82946
            51              326                  333              2.83375
            52              325                  333              2.83991
            53              324                  333              2.90310
            54              328                  334              2.90618
            55              323                  333              2.91051
            56              328                  335              2.91888
            57              322                  333              2.96129
            58              327                  334              2.97524
            59              316                  329              2.97592
            60              326                  334              2.97953
            61              325                  334              2.98569
            62              327                  335              2.98794
            63              326                  335              2.99224
            64              325                  335              2.99839
            65              328                  336              3.01038
            66              321                  333              3.02341
            67              316                  330              3.02852
            68              315                  329              3.03479
            69              324                  334              3.04888
            70              314                  329              3.05280
            71              323                  334              3.05629
            72              324                  335              3.06158
            73              313                  329              3.06203
            74              323                  335              3.06899
            75              327                  336              3.07944
            76              326                  336              3.08373
            77              315                  330              3.08740
            78              325                  336              3.08988
            79              312                  329              3.09908
            80              314                  330              3.10541
            81              322                  334              3.10707
            82              313                  330              3.11463
            83              322                  335              3.11977
            84              312                  330              3.15168
            85              320                  333              3.15280
            86              324                  336              3.15307
            87              316                  331              3.15469
            88              319                  333              3.15621
            89              323                  336              3.16048
            90              318                  333              3.16453
            91              321                  334              3.16919
            92              316                  332              3.17417
            93              321                  335              3.18190
            94              317                  333              3.18273
            95              311                  329              3.20209
            96              322                  336              3.21126
            97              315                  331              3.21356
            98              310                  329              3.21498
            99              309                  329              3.22939
           100              314                  331              3.23157
           101              308                  329              3.23243
           102              315                  332              3.23305
           103              307                  329              3.23537
           104              313                  331              3.24080
           105              314                  332              3.25106
           106              311                  330              3.25469
           107              313                  332              3.26028
           108              310                  330              3.26758
           109              321                  336              3.27339
           110              312                  331              3.27784
           111              309                  330              3.28199
           112              308                  330              3.28503
           113              307                  330              3.28797
           114              312                  332              3.29733
           115              320                  334              3.29858
           116              319                  334              3.30199
           117              318                  334              3.31030
           118              320                  335              3.31128
           119              319                  335              3.31469
           120              318                  335              3.32301
           121              317                  334              3.32851
           122              317                  335              3.34121
           123              311                  331              3.38086
           124              306                  329              3.39081
           125              310                  331              3.39374
           126              311                  332              3.40034
           127              320                  336              3.40278
           128              319                  336              3.40619
           129              309                  331              3.40815
           130              308                  331              3.41119
           131              310                  332              3.41323
           132              307                  331              3.41413
           133              318                  336              3.41450
           134              309                  332              3.42764
           135              308                  332              3.43068
           136              317                  336              3.43270
           137              307                  332              3.43362
           138              306                  330              3.44341
           139              305                  329              3.45129
           140              305                  330              3.50389
           141              304                  329              3.51214
           142              303                  329              3.52309
           143              316                  333              3.54813
           144              304                  330              3.56475
           145              306                  331              3.56957
           146              303                  330              3.57570
           147              306                  332              3.58906
           148              315                  333              3.60700
           149              314                  333              3.62501
           150              305                  331              3.63006
           151              328                  337              3.63014
           152              302                  329              3.63100
           153              313                  333              3.63424
           154              305                  332              3.64954
           155              301                  329              3.66974
           156              312                  333              3.67128
           157              300                  329              3.67573
           158              302                  330              3.68360
           159              304                  331              3.69091
           160              316                  334              3.69391
           161              327                  337              3.69920
           162              303                  331              3.70186
           163              326                  337              3.70350
           164              316                  335              3.70661
           165              325                  337              3.70965
           166              304                  332              3.71040
           167              303                  332              3.72135
           168              301                  330              3.72234
           169              300                  330              3.72833
           170              315                  334              3.75278
           171              315                  335              3.76549
           172              314                  334              3.77079
           173              324                  337              3.77284
           174              328                  338              3.77345
           175              311                  333              3.77430
           176              313                  334              3.78002
           177              323                  337              3.78025
           178              314                  335              3.78349
           179              328                  339              3.78411
           180              299                  329              3.78517
           181              328                  340              3.78643
           182              310                  333              3.78719
           183              313                  335              3.79272
           184              316                  336              3.79811
           185              309                  333              3.80160
           186              308                  333              3.80463
           187              307                  333              3.80758
           188              302                  331              3.80977
           189              312                  334              3.81706
           190              328                  341              3.82519
           191              298                  329              3.82823
           192              302                  332              3.82925
           193              312                  335              3.82977
           194              322                  337              3.83103
           195              299                  330              3.83778
           196              327                  338              3.84251
           197              326                  338              3.84680
           198              301                  331              3.84850
           199              325                  338              3.85296
           200              327                  339              3.85317
           201              300                  331              3.85449
           202              327                  340              3.85549
           203              315                  336              3.85698
           204              326                  339              3.85746
           205              326                  340              3.85978
           206              325                  339              3.86361
           207              328                  342              3.86415
           208              325                  340              3.86594
           209              301                  332              3.86799
           210              300                  332              3.87398
           211              314                  336              3.87499
           212              298                  330              3.88083
           213              313                  336              3.88421
           214              321                  337              3.89316
           215              327                  341              3.89424
           216              326                  341              3.89854
           217              325                  341              3.90469
           218              324                  338              3.91615
           219              311                  334              3.92008
           220              312                  336              3.92126
           221              323                  338              3.92356
           222              324                  339              3.92680
           223              324                  340              3.92913
           224              311                  335              3.93278
           225              310                  334              3.93297
           226              327                  342              3.93320
           227              323                  339              3.93421
           228              323                  340              3.93654
           229              326                  342              3.93750
           230              325                  342              3.94365
           231              310                  335              3.94567
           232              309                  334              3.94738
           233              308                  334              3.95041
           234              307                  334              3.95336
           235              328                  343              3.96006
           236              309                  335              3.96008
           237              306                  333              3.96301
           238              308                  335              3.96312
           239              299                  331              3.96394
           240              307                  335              3.96606
           241              324                  341              3.96788
           242              328                  344              3.96993
           243              322                  338              3.97434
           244              323                  341              3.97529
           245              299                  332              3.98343
           246              322                  339              3.98499
           247              322                  340              3.98732
           248              297                  329              3.99205
           249              324                  342              4.00684
           250              298                  331              4.00700
           251              323                  342              4.01425
           252              320                  337              4.02255
           253              305                  333              4.02350
           254              311                  336              4.02427
           255              319                  337              4.02595
           256              322                  341              4.02607
           257              298                  332              4.02648
           258              327                  343              4.02912
           259              326                  343              4.03341
           260              318                  337              4.03427
           261              321                  338              4.03646
           262              310                  336              4.03716
           263              327                  344              4.03899
           264              325                  343              4.03957
           265              326                  344              4.04328
           266              297                  330              4.04466
           267              321                  339              4.04712
           268              325                  344              4.04943
           269              321                  340              4.04944
           270              309                  336              4.05157
           271              317                  337              4.05247
           272              308                  336              4.05461
           273              307                  336              4.05755
           274              322                  342              4.06503
           275              304                  333              4.08435
           276              321                  341              4.08820
           277              303                  333              4.09530
           278              328                  345              4.10003
           279              324                  343              4.10275
           280              306                  334              4.10879
           281              323                  343              4.11017
           282              324                  344              4.11262
           283              323                  344              4.12003
           284              306                  335              4.12150
           285              321                  342              4.12716
           286              322                  343              4.16094
           287              328                  346              4.16390
           288              320                  338              4.16585
           289              327                  345              4.16909
           290              319                  338              4.16926
           291              305                  334              4.16928
           292              322                  344              4.17081
           293              297                  331              4.17082
           294              326                  345              4.17338
           295              320                  339              4.17651
           296              318                  338              4.17757
           297              320                  340              4.17883
           298              325                  345              4.17954
           299              319                  339              4.17991
           300              305                  335              4.18198
           301              319                  340              4.18224
           302              318                  339              4.18823
           303              297                  332              4.19031
           304              318                  340              4.19055
           305              317                  338              4.19577
           306              302                  333              4.20321
           307              317                  339              4.20643
           308              317                  340              4.20875
           309              306                  336              4.21299
           310              320                  341              4.21759
           311              319                  341              4.22099
           312              321                  343              4.22307
           313              318                  341              4.22931
           314              304                  334              4.23013
           315              321                  344              4.23294
           316              327                  346              4.23296
           317              326                  346              4.23726
           318              303                  334              4.24108
           319              301                  333              4.24194
           320              324                  345              4.24272
           321              304                  335              4.24283
           322              325                  346              4.24341
           323              317                  341              4.24751
           324              300                  333              4.24794
           325              296                  329              4.24808
           326              323                  345              4.25014
           327              303                  335              4.25379
           328              320                  342              4.25655
           329              319                  342              4.25995
           330              318                  342              4.26827
           331              295                  329              4.27105
           332              305                  336              4.27347
           333              294                  329              4.28291
           334              293                  329              4.28409
           335              317                  342              4.28647
           336              296                  330              4.30068
           337              322                  345              4.30091
           338              324                  346              4.30660
           339              323                  346              4.31401
           340              295                  330              4.32365
           341              304                  336              4.33433
           342              294                  330              4.33551
           343              293                  330              4.33669
           344              303                  336              4.34528
           345              302                  334              4.34899
           346              328                  347              4.35187
           347              320                  343              4.35246
           348              328                  348              4.35426
           349              319                  343              4.35587
           350              299                  333              4.35738
           351              302                  335              4.36169
           352              320                  344              4.36233
           353              321                  345              4.36304
           354              318                  343              4.36418
           355              322                  346              4.36479
           356              319                  344              4.36573
           357              318                  344              4.37405
           358              317                  343              4.38238
           359              301                  334              4.38772
           360              317                  344              4.39225
           361              300                  334              4.39372
           362              301                  335              4.40043
           363              298                  333              4.40044
           364              300                  335              4.40642
           365              328                  349              4.40762
           366              328                  350              4.41159
           367              316                  337              4.41787
           368              327                  347              4.42093
           369              328                  351              4.42265
           370              327                  348              4.42332
           371              326                  347              4.42523
           372              296                  331              4.42685
           373              321                  346              4.42692
           374              328                  352              4.42753
           375              326                  348              4.42762
           376              325                  347              4.43138
           377              325                  348              4.43377
           378              296                  332              4.44633
           379              295                  331              4.44982
           380              302                  336              4.45318
           381              294                  331              4.46167
           382              293                  331              4.46285
           383              295                  332              4.46930
           384              327                  349              4.47667
           385              315                  337              4.47675
           386              327                  350              4.48065
           387              326                  349              4.48097
           388              294                  332              4.48116
           389              293                  332              4.48234
           390              326                  350              4.48495
           391              325                  349              4.48712
           392              325                  350              4.49110
           393              327                  351              4.49171
           394              301                  336              4.49192
           395              320                  345              4.49243
           396              324                  347              4.49457
           397              314                  337              4.49475
           398              319                  345              4.49584
           399              326                  351              4.49600
[...]
                               315                  342               0.014735
                               303                  334               0.014508
                               317                  341               0.014488
                               317                  339              -0.014306
                               316                  340               0.013939
                               328                  347              -0.013729
                               295                  329              -0.013390
                               304                  340               0.012881
                               324                  353              -0.012615
                               296                  336               0.012312
                               325                  356              -0.011096
                               300                  339              -0.010973
                               297                  330              -0.010914
                               319                  340               0.010892
                               301                  336              -0.010857
                               319                  355               0.010832
                               326                  355               0.010741
                               300                  335               0.010574
                               315                  334              -0.010428
                               306                  343              -0.010011
 -------------------------------------------------------------------------------

 ENERGY| Total FORCE_EVAL ( QS ) energy [a.u.]:            -1267.701367978071403

 -------------------------------------------------------------------------------
 -                                                                             -
 -                                DBCSR STATISTICS                             -
 -                                                                             -
 -------------------------------------------------------------------------------
 COUNTER                                    TOTAL       BLAS       SMM       ACC
 flops     6 x     6 x     6             17418240       0.0%    100.0%      0.0%
 flops    17 x     6 x     6            123105024       0.0%    100.0%      0.0%
 flops     6 x    17 x     6            123653376       0.0%    100.0%      0.0%
 flops    17 x    17 x     6            787513440       0.0%    100.0%      0.0%
 flops     6 x     6 x     8           6635520000       0.0%    100.0%      0.0%
 flops     6 x     8 x     6          25183457280       0.0%    100.0%      0.0%
 flops    17 x     6 x     8          46897152000       0.0%    100.0%      0.0%
 flops     6 x    17 x     8          47106048000       0.0%    100.0%      0.0%
 flops     6 x     8 x    17         182178201600       0.0%    100.0%      0.0%
 flops    17 x     8 x     6         182178201600       0.0%    100.0%      0.0%
 flops     6 x     6 x    32         266442670080       0.0%    100.0%      0.0%
 flops    17 x    17 x     8         300005120000       0.0%    100.0%      0.0%
 flops     6 x    32 x     6        1008234915840       0.0%    100.0%      0.0%
 flops    17 x     8 x    17        1153643461632       0.0%    100.0%      0.0%
 flops    17 x     6 x    32        1883108241408       0.0%    100.0%      0.0%
 flops     6 x    17 x    32        1891496251392       0.0%    100.0%      0.0%
 flops     6 x    32 x    17        7293614284800       0.0%    100.0%      0.0%
 flops    17 x    32 x     6        7293614284800       0.0%    100.0%      0.0%
 flops    17 x    17 x    32       12046405588480       0.0%    100.0%      0.0%
 flops    17 x    32 x    17       46186812458496       0.0%    100.0%      0.0%
 flops inhomo. stacks                           0       0.0%      0.0%      0.0%
 flops total                        79.814608E+12       0.0%    100.0%      0.0%
 flops max/rank                      1.275978E+12       0.0%    100.0%      0.0%
 matmuls inhomo. stacks                         0       0.0%      0.0%      0.0%
 matmuls total                         7165386784       0.0%    100.0%      0.0%
 number of processed stacks             308969570       0.0%    100.0%      0.0%
 average stack size                                     0.0      23.2       0.0
 marketing flops                    99.323736E+12
 -------------------------------------------------------------------------------
 # multiplications                          23534
 max memory usage/rank               1.846768E+09
 # max total images/rank                        5
 # max 3D layers                                1
 # MPI messages exchanged               112257180
 MPI messages size (bytes):
  total size                        12.325533E+12
  min size                           0.000000E+00
  max size                         364.896000E+03
  average size                     109.797273E+03
 MPI breakdown and total messages size (bytes):
             size <=      128            33550536                        0
       128 < size <=     8192             2326440              12588485760
      8192 < size <=    32768            24531612             528000530816
     32768 < size <=   131072            12773202             991018166272
    131072 < size <=  4194304            39075390           10803714062976
   4194304 < size <= 16777216                   0                        0
  16777216 < size                               0                        0
 -------------------------------------------------------------------------------

 *** WARNING in dbcsr_mm.F:291 :: Using a non-square number of MPI ranks ***
 *** might lead to poor performance. Used ranks: 90 Suggested: 81 169    ***

 -------------------------------------------------------------------------------
 -                                                                             -
 -                      DBCSR MESSAGE PASSING PERFORMANCE                      -
 -                                                                             -
 -------------------------------------------------------------------------------
 ROUTINE             CALLS      AVE VOLUME [Bytes]
 MP_Bcast               21                     12.
 MP_Allreduce        86774                      8.
 MP_Alltoall        426453                  56258.
 MP_ISend          2744900                  53155.
 MP_IRecv          2791968                  51567.
 -------------------------------------------------------------------------------

 -------------------------------------------------------------------------------
 -                                                                             -
 -                                DBM STATISTICS                               -
 -                                                                             -
 -------------------------------------------------------------------------------
    M  x    N  x    K                                          COUNT     PERCENT
 -------------------------------------------------------------------------------

 -------------------------------------------------------------------------------
 -                                                                             -
 -                                GRID STATISTICS                              -
 -                                                                             -
 -------------------------------------------------------------------------------
 LP    KERNEL             BACKEND                              COUNT     PERCENT
 2     collocate general  CPU                              780135716      25.98%
 2     integrate general  CPU                              779748296      25.97%
 1     collocate general  CPU                              441915080      14.72%
 1     integrate general  CPU                              441694368      14.71%
 3     collocate general  CPU                              196583400       6.55%
 3     integrate general  CPU                              196485840       6.54%
 0     collocate general  CPU                               70260420       2.34%
 0     integrate general  CPU                               70208040       2.34%
 4     collocate general  CPU                               12694500       0.42%
 4     integrate general  CPU                               12688200       0.42%
 -------------------------------------------------------------------------------

 MEMORY| Estimated peak process memory [MiB]                                1762

 -------------------------------------------------------------------------------
 -                                                                             -
 -                         MESSAGE PASSING PERFORMANCE                         -
 -                                                                             -
 -------------------------------------------------------------------------------

 ROUTINE             CALLS      AVE VOLUME [Bytes]
 MP_Group                4
 MP_Bcast              212                4131426.
 MP_Allreduce      6392647                     34.
 MP_Sync             48426
 MP_Alltoall        132241              110882085.
 MP_SendRecv        718052                  11755.
 MP_ISendRecv       716984                  11760.
 MP_Wait           1216711
 MP_comm_split          37
 MP_ISend           694371                 111311.
 MP_IRecv           741353                 104261.
 MP_Write_All            2                 733120.
 -------------------------------------------------------------------------------


 -------------------------------------------------------------------------------
 -                                                                             -
 -                           R E F E R E N C E S                               -
 -                                                                             -
 -------------------------------------------------------------------------------
 
 CP2K version 2023.2, the CP2K developers group (2023).
 CP2K is freely available from https://www.cp2k.org/ .

 Kuehne,Thomas D.; Iannuzzi,Marcella; Del Ben,Mauro;
 Rybkin,Vladimir V.; Seewald,Patrick; Stein,Frederick; Laino,Teodoro;
 Khaliullin,Rustam Z.; Schuett,Ole; Schiffmann,Florian; Golze,Dorothea;
 Wilhelm,Jan; Chulkov,Sergey; Bani-Hashemian,Mohammad Hossein;
 Weber,Valery; Borstnik,Urban; Taillefumier,Mathieu;
 Jakobovits,Alice Shoshana; Lazzaro,Alfio; Pabst,Hans; Mueller,Tiziano;
 Schade,Robert; Guidon,Manuel; Andermatt,Samuel; Holmberg,Nico;
 Schenter,Gregory K.; Hehn,Anna; Bussy,Augustin; Belleflamme,Fabian;
 Tabacchi,Gloria; Gloess,Andreas; Lass,Michael; Bethune,Iain;
 Mundy,Christopher J.; Plessl,Christian; Watkins,Matt;
 VandeVondele,Joost; Krack,Matthias; Hutter,Juerg. 
 The Journal of Chemical Physics, 152 (19), (2020). 
 CP2K: An electronic structure and molecular dynamics software package -
 Quickstep: Efficient and accurate electronic structure calculations.
 https://doi.org/10.1063/5.0007045

 Yin, Wen-Jin; Krack, Matthias; Li, Xibo; Chen, Li-Zhen; Liu, Li-Min. 
 Prog. Nat. Sci., 27 (2), 283-288 (2017). 
 Periodic continuum solvation model integrated with first-principles
 calculations for solid surfaces.
 https://doi.org/10.1016/j.pnsc.2017.03.003

 Goerigk, Lars; Hansen, Andreas; Bauer, Christoph; Ehrlich, Stephan;
 Najibi, Asim; Grimme, Stefan. , 19 (48), (2017). 
 A look at the density functional theory zoo with the advanced GMTKN55 database
 for general main group thermochemistry, kinetics and noncovalent interactions.
 https://doi.org/10.1039/C7CP04913G

 Schuett, Ole; Messmer, Peter; Hutter, Juerg; VandeVondele, Joost. 
 Electronic Structure Calculations on Graphics Processing Units, John
 Wiley & Sons, Ltd, 173-190 (2016). 
 GPU-Accelerated Sparse Matrix-Matrix Multiplication for
 Linear Scaling Density Functional Theory.
 https://doi.org/10.1002/9781118670712.ch8

 Heinecke, A; Henry, G; Hutchinson, M; Pabst, H. 
 Proceedings of Intl. Supercomputing Conference, 981-991 (2016). 
 LIBXSMM: Accelerating Small Matrix Multiplications
 by Runtime Code Generation.
 https://doi.org/10.1109/SC.2016.83

 Borstnik, U; VandeVondele, J; Weber, V; Hutter, J. 
 PARALLEL COMPUTING, 40 (5-6), 47-58 (2014). 
 Sparse matrix multiplication: The distributed block-compressed sparse
 row library.
 https://doi.org/10.1016/j.parco.2014.03.012

 Hutter, J; Iannuzzi, M; Schiffmann, F; VandeVondele, J. 
 WIREs Comput Mol Sci., 4 (1), 15-25 (2014). 
 CP2K: atomistic simulations of condensed matter systems.
 https://doi.org/10.1002/wcms.1159

 Andreussi, O; Dabo, I; Marzari, N. 
 J. Chem. Phys., 136 (6), 064102 (2012). 
 Revised self-consistent continuum solvation in
 electronic-structure calculations.
 https://doi.org/10.1063/1.3676407

 Grimme, S; Ehrlich, S; Goerigk, L. 
 JOURNAL OF COMPUTATIONAL CHEMISTRY, 32, 1456 (2011). 
 Effect of the damping function in dispersion corrected density functional theory.
 https://doi.org/10.1002/jcc.21759

 Grimme, S; Antony, J; Ehrlich, S; Krieg, H. 
 JOURNAL OF CHEMICAL PHYSICS, 132 (15), 154104 (2010). 
 A consistent and accurate ab initio parametrization of density
 functional dispersion correction (DFT-D) for the 94 elements H-Pu.
 https://doi.org/10.1063/1.3382344

 Krack, M. 
 THEORETICAL CHEMISTRY ACCOUNTS, 114 (1-3), 145-152 (2005). 
 Pseudopotentials for H to Kr optimized for gradient-corrected
 exchange-correlation functionals.
 https://doi.org/10.1007/s00214-005-0655-y

 VandeVondele, J; Krack, M; Mohamed, F; Parrinello, M; Chassaing, T;
 Hutter, J. COMPUTER PHYSICS COMMUNICATIONS, 167 (2), 103-128 (2005). 
 QUICKSTEP: Fast and accurate density functional calculations using a
 mixed Gaussian and plane waves approach.
 https://doi.org/10.1016/j.cpc.2004.12.014

 Frigo, M; Johnson, SG. 
 PROCEEDINGS OF THE IEEE, 93 (2), 216-231 (2005). 
 The design and implementation of FFTW3.
 https://doi.org/10.1109/JPROC.2004.840301

 Iannuzzi, M; Chassaing, T; Wallman, T; Hutter, J. 
 CHIMIA, 59 (7-8), 499-503 (2005). 
 Ground and excited state density functional calculations with the
 Gaussian and augmented-plane-wave method.
 https://doi.org/10.2533/000942905777676164

 Hartwigsen, C; Goedecker, S; Hutter, J. 
 PHYSICAL REVIEW B, 58 (7), 3641-3662 (1998). 
 Relativistic separable dual-space Gaussian pseudopotentials from H to Rn.
 https://doi.org/10.1103/PhysRevB.58.3641

 Lippert, G; Hutter, J; Parrinello, M. 
 MOLECULAR PHYSICS, 92 (3), 477-487 (1997). 
 A hybrid Gaussian and plane wave density functional scheme.
 https://doi.org/10.1080/002689797170220

 Perdew, JP; Burke, K; Ernzerhof, M. 
 PHYSICAL REVIEW LETTERS, 77 (18), 3865-3868 (1996). 
 Generalized gradient approximation made simple.
 https://doi.org/10.1103/PhysRevLett.77.3865

 Goedecker, S; Teter, M; Hutter, J. 
 PHYSICAL REVIEW B, 54 (3), 1703-1710 (1996). 
 Separable dual-space Gaussian pseudopotentials.
 https://doi.org/10.1103/PhysRevB.54.1703


 -------------------------------------------------------------------------------
 -                                                                             -
 -                                T I M I N G                                  -
 -                                                                             -
 -------------------------------------------------------------------------------
 SUBROUTINE                       CALLS  ASD         SELF TIME        TOTAL TIME
                                MAXIMUM       AVERAGE  MAXIMUM  AVERAGE  MAXIMUM
 CP2K                                 1  1.0    0.031    0.057 5096.874 5096.881
 qs_energies                          1  2.0    0.000    0.006 5096.328 5096.338
 qs_energies_properties               1  3.0    0.000    0.000 4981.498 4981.507
 tddfpt                               1  4.0    0.001    0.001 4981.498 4981.507
 tddfpt_energies                      1  5.0    0.002    0.003 4980.314 4980.332
 tddfpt_davidson_solver               2  6.0    0.314    0.321 4942.727 4942.734
 tddfpt_compute_Aop_evects            8  7.0    0.000    0.000 3790.306 3790.358
 fhxc_kernel                          8  8.0    0.160    0.175 3708.839 3708.891
 integrate_v_rspace                4028  9.0    0.168    0.180 1557.930 1559.868
 qs_rho_update_rho_low             4030  9.0    0.020    0.026 1540.462 1543.693
 calculate_rho_elec                4030 10.0    0.949    1.013 1540.443 1543.668
 grid_integrate_task_list          4028 10.0 1320.987 1354.518 1320.987 1354.518
 grid_collocate_task_list          4030 11.0 1249.761 1292.296 1249.761 1292.296
 pw_transfer                      82229 11.5    6.295    6.944  516.205  520.436
 fft_wrap_pw1pw2                  74173 12.5    0.925    1.045  507.778  513.114
 tddfpt_compute_ritz_vects            8  7.0   13.199   20.745  466.810  480.104
 tddfpt_orthonormalize_psi1_psi       9  6.9    4.114    4.391  452.654  452.655
 fft_wrap_pw1pw2_250              49993 13.5   58.810   61.497  444.068  449.873
 dbcsr_multiply_generic           23534 10.3    1.282    1.499  389.649  399.158
 cp_fm_scale_and_add            *******  8.0  344.652  376.288  344.652  376.288
 cp_dbcsr_sm_fm_multiply          15506  8.5    0.455    0.512  373.438  374.308
 fft3d_pb                         49993 14.5  132.815  149.872  347.891  355.575
 tddfpt_apply_xc_analytic          4000  9.0    1.964    2.319  314.813  317.591
 rs_pw_transfer                   32341 11.5    0.479    0.518  280.148  312.002
 cp_dbcsr_sm_fm_multiply_core     15506  9.5    0.041    0.053  292.777  303.220
 density_rs2pw                     4030 11.0    0.189    0.219  270.823  302.472
 multiply_cannon                  23534 11.3    2.754    3.449  267.049  279.271
 cp_fm_trace_a1b1t1_aa          6377250  8.0  125.419  136.493  247.967  265.505
 xc_pw_derive                     24171 11.0    0.236    0.268  254.864  256.602
 multiply_cannon_loop             23534 12.3    4.446    4.919  239.201  251.445
 mp_waitall_1                   3215794 14.1  205.818  242.537  205.818  242.537
 cp_fm_contracted_trace_a2b2t2_      20  8.0  196.261  209.715  221.466  221.742
 mp_waitany                      307647 13.5  185.661  218.394  185.661  218.394
 mp_alltoall_z22v                124166 16.5  197.300  212.520  197.300  212.520
 multiply_cannon_metrocomm3      706020 13.3    0.898    0.955  169.939  207.890
 parallel_gemm_fm                 14008  7.9    0.019    0.025  187.175  195.933
 parallel_gemm_fm_cosma           14008  8.9  187.156  195.913  187.156  195.913
 potential_pw2rs                   4028 10.0    0.285    0.314  186.986  188.577
 xc_calc_2nd_deriv_analytical      4000 10.0   10.704   11.410  176.894  177.704
 tddfpt_compute_residual_vects        6  7.0    0.143    0.156  151.282  167.020
 xc_pw_divergence                  4028 11.0    0.105    0.145  161.154  163.376
 mp_sum_dv                      6377280  9.0  120.833  150.011  120.833  150.011
 rs_pw_transfer_RS2PW_250          4108 12.9   11.610   13.885   94.673  128.229
 cp_dbcsr_plus_fm_fm_t_native      4028  9.0    0.060    0.067  113.309  115.718
 scf_env_do_scf                       1  3.0    0.000    0.001  103.081  103.131
 scf_env_do_scf_inner_loop           28  4.0    0.001    0.008  103.081  103.130
 -------------------------------------------------------------------------------

 The number of warnings for this run is : 1
 
 -------------------------------------------------------------------------------
  **** **** ******  **  PROGRAM ENDED AT                 2024-03-04 18:36:36.054
 ***** ** ***  *** **   PROGRAM RAN ON                              fcdcc7f72a76
 **    ****   ******    PROGRAM RAN BY                                 <unknown>
 ***** **    ** ** **   PROGRAM PROCESS ID                                   538
  **** **  *******  **  PROGRAM STOPPED IN                                  /mnt
