
     Program PWSCF v.7.2 starts on 27Feb2024 at 15:10:42

     This program is part of the open-source Quantum ESPRESSO suite
     for quantum simulation of materials; please cite
         "P. Giannozzi et al., J. Phys.:Condens. Matter 21 395502 (2009);
         "P. Giannozzi et al., J. Phys.:Condens. Matter 29 465901 (2017);
         "P. Giannozzi et al., J. Chem. Phys. 152 154105 (2020);
          URL http://www.quantum-espresso.org",
     in publications or presentations arising from this work. More details at
     http://www.quantum-espresso.org/quote

     Parallel version (MPI), running on   120 processors

     MPI processes distributed on     1 nodes
     454171 MiB available memory on the printing compute node when the environment starts

     Reading input from 4amp15isopbe_relax.in

     Current dimensions of program PWSCF are:
     Max number of different atomic species (ntypx) = 10
     Max number of k-points (npk) =  40000
     Max angular momentum in pseudopotentials (lmaxx) =  4

     IMPORTANT: XC functional enforced from input :
     Exchange-correlation= PBE
                           (   1   4   3   4   0   0   0)
     Any further DFT definition will be discarded
     Please, verify this is what you really want


     gamma-point specific algorithms are used

     R & G space division:  proc/nbgrp/npool/nimage =     120
     Subspace diagonalization in iterative solution of the eigenvalue problem:
     a serial algorithm will be used


     Parallelization info
     --------------------
     sticks:   dense  smooth     PW     G-vecs:    dense   smooth      PW
     Min        1288     514    127               196556    49718    6211
     Max        1290     516    130               196570    49732    6218
     Sum      154717   61901  15477             23587401  5967365  745749

     Using Slab Decomposition



     bravais-lattice index     =            0
     lattice parameter (alat)  =      62.3610  a.u.
     unit-cell volume          =  124931.9165 (a.u.)^3
     number of atoms/cell      =           49
     number of atomic types    =            4
     number of electrons       =       140.00
     number of Kohn-Sham states=           70
     kinetic-energy cutoff     =      50.0000  Ry
     charge density cutoff     =     500.0000  Ry
     scf convergence threshold =      1.0E-07
     mixing beta               =       0.7000
     number of iterations used =            8  local-TF  mixing
     energy convergence thresh.=      5.0E-04
     force convergence thresh. =      5.0E-03
     Exchange-correlation= PBE
                           (   1   4   3   4   0   0   0)
     nstep                     =           50

     Assuming isolated system, Martyna-Tuckerman method


     celldm(1)=  62.360962  celldm(2)=   0.000000  celldm(3)=   0.000000
     celldm(4)=   0.000000  celldm(5)=   0.000000  celldm(6)=   0.000000

     crystal axes: (cart. coord. in units of alat)
               a(1) = (   1.000000   0.000000   0.000000 )
               a(2) = (   0.000000   1.000000   0.000000 )
               a(3) = (   0.000000   0.000000   0.515152 )

     reciprocal axes: (cart. coord. in units 2 pi/alat)
               b(1) = (  1.000000  0.000000  0.000000 )
               b(2) = (  0.000000  1.000000  0.000000 )
               b(3) = (  0.000000  0.000000  1.941176 )


     PseudoPot. # 1 for O  read from file:
     /home/cyk/q-e-qe-7.2/pp/O.pbe-n-rrkjus_psl.1.0.0.UPF
     MD5 check sum: 91400c9766925bcf19f520983a725ff0
     Pseudo is Ultrasoft + core correction, Zval =  6.0
     Generated using &quot;atomic&quot; code by A. Dal Corso  v.6.3MaX
     Using radial grid of 1095 points,  4 beta functions with:
                l(1) =   0
                l(2) =   0
                l(3) =   1
                l(4) =   1
     Q(r) pseudized with 0 coefficients


     PseudoPot. # 2 for N  read from file:
     /home/cyk/q-e-qe-7.2/pp/N.pbe-n-rrkjus_psl.1.0.0.UPF
     MD5 check sum: ada94e3ed05223de5319d0572dc76806
     Pseudo is Ultrasoft + core correction, Zval =  5.0
     Generated using &quot;atomic&quot; code by A. Dal Corso  v.6.3MaX
     Using radial grid of 1085 points,  4 beta functions with:
                l(1) =   0
                l(2) =   0
                l(3) =   1
                l(4) =   1
     Q(r) pseudized with 0 coefficients


     PseudoPot. # 3 for C  read from file:
     /home/cyk/q-e-qe-7.2/pp/C.pbe-n-rrkjus_psl.1.0.0.UPF
     MD5 check sum: 1fdd950c42eb37d8afe3dd2f8d12311e
     Pseudo is Ultrasoft + core correction, Zval =  4.0
     Generated using &quot;atomic&quot; code by A. Dal Corso  v.6.3MaX
     Using radial grid of 1073 points,  4 beta functions with:
                l(1) =   0
                l(2) =   0
                l(3) =   1
                l(4) =   1
     Q(r) pseudized with 0 coefficients


     PseudoPot. # 4 for H  read from file:
     /home/cyk/q-e-qe-7.2/pp/H.pbe-rrkjus_psl.1.0.0.UPF
     MD5 check sum: 3f4114867bd07edc7f1424d066fc1888
     Pseudo is Ultrasoft, Zval =  1.0
     Generated using &quot;atomic&quot; code by A. Dal Corso  v.6.3MaX
     Using radial grid of  929 points,  2 beta functions with:
                l(1) =   0
                l(2) =   0
     Q(r) pseudized with 0 coefficients


     atomic species   valence    mass     pseudopotential
        O              6.00    16.00000     O ( 1.00)
        N              5.00    14.00000     N ( 1.00)
        C              4.00    12.00000     C ( 1.00)
        H              1.00     1.00000     H ( 1.00)

     No symmetry found



   Cartesian axes

     site n.     atom                  positions (alat units)
         1           O   tau(   1) = (   0.4965885   0.3937900   0.3673722  )
         2           O   tau(   2) = (   0.6308204   0.2282988   0.4122658  )
         3           O   tau(   3) = (   0.2546569   0.6216982   0.4387503  )
         4           N   tau(   4) = (   0.4078757   0.5317084   0.4684251  )
         5           C   tau(   5) = (   0.5934936   0.3308835   0.4739871  )
         6           H   tau(   6) = (   0.5836911   0.3579705   0.4896826  )
         7           C   tau(   7) = (   0.6213676   0.3054584   0.4918579  )
         8           H   tau(   8) = (   0.6332018   0.3126152   0.5216548  )
         9           C   tau(   9) = (   0.6348803   0.2705287   0.4723962  )
        10           H   tau(  10) = (   0.6567828   0.2511727   0.4872196  )
        11           C   tau(  11) = (   0.6200092   0.2612729   0.4341026  )
        12           C   tau(  12) = (   0.5919645   0.2870082   0.4158701  )
        13           H   tau(  13) = (   0.5808036   0.2793206   0.3859458  )
        14           C   tau(  14) = (   0.5782995   0.3217676   0.4353713  )
        15           C   tau(  15) = (   0.5487828   0.3470278   0.4144757  )
        16           H   tau(  16) = (   0.5413993   0.3383578   0.3835479  )
        17           C   tau(  17) = (   0.5295672   0.3796278   0.4290390  )
        18           H   tau(  18) = (   0.5350240   0.3902296   0.4595885  )
        19           C   tau(  19) = (   0.5008628   0.4021823   0.4030937  )
        20           C   tau(  20) = (   0.4772351   0.4360325   0.4213533  )
        21           C   tau(  21) = (   0.4570985   0.4624075   0.3951642  )
        22           H   tau(  22) = (   0.4601321   0.4573668   0.3628667  )
        23           C   tau(  23) = (   0.4341902   0.4940938   0.4099084  )
        24           H   tau(  24) = (   0.4197893   0.5150807   0.3891422  )
        25           C   tau(  25) = (   0.4302912   0.5000725   0.4517202  )
        26           C   tau(  26) = (   0.4509045   0.4741603   0.4780106  )
        27           H   tau(  27) = (   0.4482327   0.4792307   0.5103332  )
        28           C   tau(  28) = (   0.4737832   0.4424796   0.4630062  )
        29           H   tau(  29) = (   0.4886384   0.4223860   0.4842698  )
        30           C   tau(  30) = (   0.3740014   0.5412909   0.4527987  )
        31           H   tau(  31) = (   0.3610709   0.5240502   0.4274372  )
        32           C   tau(  32) = (   0.3495088   0.5751268   0.4674247  )
        33           C   tau(  33) = (   0.3134416   0.5837405   0.4475975  )
        34           H   tau(  34) = (   0.3036787   0.5657389   0.4218879  )
        35           C   tau(  35) = (   0.2890284   0.6157442   0.4602949  )
        36           C   tau(  36) = (   0.3009341   0.6390330   0.4933024  )
        37           H   tau(  37) = (   0.2824867   0.6639907   0.5038483  )
        38           C   tau(  38) = (   0.3371568   0.6301265   0.5131014  )
        39           H   tau(  39) = (   0.3460984   0.6485075   0.5388169  )
        40           C   tau(  40) = (   0.3615405   0.5986425   0.5005663  )
        41           H   tau(  41) = (   0.3897193   0.5915525   0.5157708  )
        42           C   tau(  42) = (   0.6592984   0.2015596   0.4295053  )
        43           H   tau(  43) = (   0.6637255   0.1774278   0.4074633  )
        44           H   tau(  44) = (   0.6480917   0.1884851   0.4578721  )
        45           H   tau(  45) = (   0.6883115   0.2166598   0.4351114  )
        46           C   tau(  46) = (   0.2285782   0.6531057   0.4512918  )
        47           H   tau(  47) = (   0.2029102   0.6525197   0.4305905  )
        48           H   tau(  48) = (   0.2434144   0.6827276   0.4494188  )
        49           H   tau(  49) = (   0.2177371   0.6482203   0.4822702  )

     --------------------------------------------
     DFT-D3 Dispersion Correction (3-body terms):
     --------------------------------------------
       Reference C6 values for interpolation:

         atom   Coordination number   C6
         H          0.912             6.05
         H          0.000            15.18
         C          0.000            98.23
         C          0.987            86.49
         C          1.998            58.72
         C          2.999            51.56
         C          3.984            36.41
         N          0.000            50.54
         N          0.994            44.25
         N          2.014            39.35
         N          2.990            31.16
         O          0.000            31.01
         O          0.993            25.63
         O          1.989            20.74

       Values used:

         atom   Coordination number  R0_AB[au]  C6      C8
         O          1.070            2.345     25.51    514.74
         O          2.052            2.345     20.79    419.61
         O          2.052            2.345     20.79    419.61
         N          2.142            2.478     38.89    857.91
         C          3.174            2.750     50.33   1455.54
         H          1.004            2.062      6.18     74.67
         C          3.144            2.750     50.58   1462.98
         H          1.004            2.062      6.18     74.68
         C          3.163            2.750     50.43   1458.41
         H          1.005            2.062      6.18     74.67
         C          3.218            2.750     49.85   1441.69
         C          3.221            2.750     49.81   1440.58
         H          1.005            2.062      6.18     74.67
         C          3.179            2.750     50.27   1453.99
         C          3.146            2.750     50.57   1462.43
         H          1.007            2.062      6.18     74.65
         C          3.107            2.750     50.84   1470.35
         H          1.005            2.062      6.18     74.66
         C          3.129            2.750     50.69   1466.11
         C          3.196            2.750     50.10   1449.03
         C          3.188            2.750     50.19   1451.57
         H          1.005            2.062      6.18     74.67
         C          3.176            2.750     50.31   1454.99
         H          1.004            2.062      6.18     74.67
         C          3.250            2.750     49.41   1429.02
         C          3.183            2.750     50.24   1452.97
         H          1.004            2.062      6.18     74.67
         C          3.174            2.750     50.32   1455.35
         H          1.005            2.062      6.18     74.67
         C          3.200            2.750     50.05   1447.60
         H          1.003            2.062      6.18     74.69
         C          3.195            2.750     50.12   1449.45
         C          3.217            2.750     49.86   1442.13
         H          1.004            2.062      6.18     74.67
         C          3.219            2.750     49.84   1441.38
         C          3.164            2.750     50.42   1458.14
         H          1.005            2.062      6.18     74.67
         C          3.145            2.750     50.57   1462.68
         H          1.004            2.062      6.18     74.68
         C          3.175            2.750     50.32   1455.23
         H          1.005            2.062      6.18     74.67
         C          4.061            2.750     36.56   1057.41
         H          0.997            2.062      6.18     74.76
         H          0.996            2.062      6.19     74.77
         H          0.996            2.062      6.19     74.77
         C          4.061            2.750     36.56   1057.41
         H          0.997            2.062      6.18     74.76
         H          0.996            2.062      6.19     74.77
         H          0.996            2.062      6.19     74.77

         Molecular C6 ( Ry / a.u.^6 ) =     57649.31


     number of k points=     1
                       cart. coord. in units 2pi/alat
        k(    1) = (   0.0000000   0.0000000   0.0000000), wk =   2.0000000

     Dense  grid: 11793701 G-vectors     FFT dimensions: ( 450, 450, 240)

     Smooth grid:  2983683 G-vectors     FFT dimensions: ( 288, 288, 150)

     Estimated max dynamical RAM per process >     265.32 MB

     Estimated total dynamical RAM >      31.09 GB

     Initial potential from superposition of free atoms

     starting charge     139.9988, renormalised to     140.0000

     negative rho (up, down):  8.072E-03 0.000E+00
     Starting wfcs are  133 randomized atomic wfcs

     total cpu time spent up to now is       19.8 secs

     Self-consistent Calculation

     iteration #  1     ecut=    50.00 Ry     beta= 0.70
     Davidson diagonalization with overlap
     ethr =  1.00E-02,  avg # of iterations =  3.0

     negative rho (up, down):  2.010E-04 0.000E+00

     total cpu time spent up to now is       81.6 secs

     total energy              =    -440.76097341 Ry
     estimated scf accuracy    <       3.62118680 Ry

     iteration #  2     ecut=    50.00 Ry     beta= 0.70
     Davidson diagonalization with overlap
     ethr =  2.59E-03,  avg # of iterations =  2.0

     negative rho (up, down):  2.400E-05 0.000E+00

     total cpu time spent up to now is      139.0 secs

     total energy              =    -440.20640080 Ry
     estimated scf accuracy    <       1.66087328 Ry

     iteration #  3     ecut=    50.00 Ry     beta= 0.70
     Davidson diagonalization with overlap
     ethr =  1.19E-03,  avg # of iterations =  4.0

     negative rho (up, down):  8.826E-07 0.000E+00

     total cpu time spent up to now is      225.8 secs

     total energy              =    -440.52320335 Ry
     estimated scf accuracy    <       0.47821282 Ry

     iteration #  4     ecut=    50.00 Ry     beta= 0.70
     Davidson diagonalization with overlap
     ethr =  3.42E-04,  avg # of iterations =  4.0

     negative rho (up, down):  1.710E-07 0.000E+00

     total cpu time spent up to now is      264.5 secs

     total energy              =    -440.48235903 Ry
     estimated scf accuracy    <       0.29292294 Ry

     iteration #  5     ecut=    50.00 Ry     beta= 0.70
     Davidson diagonalization with overlap
     ethr =  2.09E-04,  avg # of iterations =  2.0

     negative rho (up, down):  1.844E-08 0.000E+00

     total cpu time spent up to now is      298.8 secs

     total energy              =    -440.48706544 Ry
     estimated scf accuracy    <       0.16342154 Ry

     iteration #  6     ecut=    50.00 Ry     beta= 0.70
     Davidson diagonalization with overlap
     ethr =  1.17E-04,  avg # of iterations =  5.0

     negative rho (up, down):  3.604E-02 0.000E+00

     total cpu time spent up to now is      323.0 secs

     total energy              =    -440.47998857 Ry
     estimated scf accuracy    <       0.09740000 Ry

     iteration #  7     ecut=    50.00 Ry     beta= 0.70
     Davidson diagonalization with overlap
     ethr =  6.96E-05,  avg # of iterations =  5.0

     negative rho (up, down):  1.217E-01 0.000E+00

     total cpu time spent up to now is      340.0 secs

     total energy              =    -440.47646738 Ry
     estimated scf accuracy    <       0.07513066 Ry

     iteration #  8     ecut=    50.00 Ry     beta= 0.70
     Davidson diagonalization with overlap
     ethr =  5.37E-05,  avg # of iterations =  2.0

     negative rho (up, down):  2.744E-01 0.000E+00

     total cpu time spent up to now is      365.6 secs

     total energy              =    -440.47146086 Ry
     estimated scf accuracy    <       0.04358248 Ry

     iteration #  9     ecut=    50.00 Ry     beta= 0.70
     Davidson diagonalization with overlap
     ethr =  3.11E-05,  avg # of iterations =  6.0

     negative rho (up, down):  3.418E-01 0.000E+00

     total cpu time spent up to now is      389.5 secs

     total energy              =    -440.47118473 Ry
     estimated scf accuracy    <       0.04260352 Ry

     iteration # 10     ecut=    50.00 Ry     beta= 0.70
     Davidson diagonalization with overlap
     ethr =  3.04E-05,  avg # of iterations =  4.0

     negative rho (up, down):  2.515E-01 0.000E+00

     total cpu time spent up to now is      415.1 secs

     total energy              =    -440.46546421 Ry
     estimated scf accuracy    <       0.01948602 Ry

     iteration # 11     ecut=    50.00 Ry     beta= 0.70
     Davidson diagonalization with overlap
     ethr =  1.39E-05,  avg # of iterations =  9.0

     negative rho (up, down):  2.484E-01 0.000E+00

     total cpu time spent up to now is      448.4 secs

     total energy              =    -440.47079240 Ry
     estimated scf accuracy    <       0.02433906 Ry

     iteration # 12     ecut=    50.00 Ry     beta= 0.70
     Davidson diagonalization with overlap
     ethr =  1.39E-05,  avg # of iterations =  2.0

     negative rho (up, down):  1.612E-01 0.000E+00

     total cpu time spent up to now is      488.4 secs

     total energy              =    -440.46377474 Ry
     estimated scf accuracy    <       0.01362404 Ry

     iteration # 13     ecut=    50.00 Ry     beta= 0.70
     Davidson diagonalization with overlap
     ethr =  9.73E-06,  avg # of iterations =  9.0

     negative rho (up, down):  1.387E-01 0.000E+00

     total cpu time spent up to now is      543.8 secs

     total energy              =    -440.46857305 Ry
     estimated scf accuracy    <       0.02191238 Ry

     iteration # 14     ecut=    50.00 Ry     beta= 0.70
     Davidson diagonalization with overlap
     ethr =  9.73E-06,  avg # of iterations =  2.0

     negative rho (up, down):  1.053E-01 0.000E+00

     total cpu time spent up to now is      573.7 secs

     total energy              =    -440.46453804 Ry
     estimated scf accuracy    <       0.01198087 Ry

     iteration # 15     ecut=    50.00 Ry     beta= 0.70
     Davidson diagonalization with overlap
     ethr =  8.56E-06,  avg # of iterations =  6.0

     negative rho (up, down):  7.569E-02 0.000E+00

     total cpu time spent up to now is      605.9 secs

     total energy              =    -440.46774681 Ry
     estimated scf accuracy    <       0.00206123 Ry

     iteration # 16     ecut=    50.00 Ry     beta= 0.70
     Davidson diagonalization with overlap
     ethr =  1.47E-06,  avg # of iterations =  5.0

     negative rho (up, down):  4.411E-02 0.000E+00

     total cpu time spent up to now is      639.5 secs

     total energy              =    -440.46734244 Ry
     estimated scf accuracy    <       0.00093981 Ry

     iteration # 17     ecut=    50.00 Ry     beta= 0.70
     Davidson diagonalization with overlap
     ethr =  6.71E-07,  avg # of iterations =  5.0

     negative rho (up, down):  2.894E-02 0.000E+00

     total cpu time spent up to now is      665.2 secs

     total energy              =    -440.46746605 Ry
     estimated scf accuracy    <       0.00012312 Ry

     iteration # 18     ecut=    50.00 Ry     beta= 0.70
     Davidson diagonalization with overlap
     ethr =  8.79E-08,  avg # of iterations =  5.0

     negative rho (up, down):  2.154E-02 0.000E+00

     total cpu time spent up to now is      690.0 secs

     total energy              =    -440.46749757 Ry
     estimated scf accuracy    <       0.00004541 Ry

     iteration # 19     ecut=    50.00 Ry     beta= 0.70
     Davidson diagonalization with overlap
     ethr =  3.24E-08,  avg # of iterations =  6.0

     negative rho (up, down):  1.468E-02 0.000E+00

     total cpu time spent up to now is      715.9 secs

     total energy              =    -440.46750089 Ry
     estimated scf accuracy    <       0.00002038 Ry

     iteration # 20     ecut=    50.00 Ry     beta= 0.70
     Davidson diagonalization with overlap
     ethr =  1.46E-08,  avg # of iterations =  6.0

     negative rho (up, down):  1.315E-02 0.000E+00

     total cpu time spent up to now is      766.1 secs

     total energy              =    -440.46750047 Ry
     estimated scf accuracy    <       0.00000738 Ry

     iteration # 21     ecut=    50.00 Ry     beta= 0.70
     Davidson diagonalization with overlap
     ethr =  5.27E-09,  avg # of iterations =  5.0

     negative rho (up, down):  1.224E-02 0.000E+00

     total cpu time spent up to now is      808.6 secs

     total energy              =    -440.46750146 Ry
     estimated scf accuracy    <       0.00000213 Ry

     iteration # 22     ecut=    50.00 Ry     beta= 0.70
     Davidson diagonalization with overlap
     ethr =  1.52E-09,  avg # of iterations =  5.0

     negative rho (up, down):  1.167E-02 0.000E+00

     total cpu time spent up to now is      868.1 secs

     total energy              =    -440.46750151 Ry
     estimated scf accuracy    <       0.00000095 Ry

     iteration # 23     ecut=    50.00 Ry     beta= 0.70
     Davidson diagonalization with overlap
     ethr =  6.76E-10,  avg # of iterations =  4.0

     negative rho (up, down):  1.146E-02 0.000E+00

     total cpu time spent up to now is      905.6 secs

     total energy              =    -440.46750168 Ry
     estimated scf accuracy    <       0.00000049 Ry

     iteration # 24     ecut=    50.00 Ry     beta= 0.70
     Davidson diagonalization with overlap
     ethr =  3.51E-10,  avg # of iterations =  6.0

     negative rho (up, down):  1.127E-02 0.000E+00

     total cpu time spent up to now is      967.4 secs

     total energy              =    -440.46750168 Ry
     estimated scf accuracy    <       0.00000026 Ry

     iteration # 25     ecut=    50.00 Ry     beta= 0.70
     Davidson diagonalization with overlap
     ethr =  1.85E-10,  avg # of iterations =  6.0

     negative rho (up, down):  1.127E-02 0.000E+00

     total cpu time spent up to now is     1009.7 secs

     total energy              =    -440.46750172 Ry
     estimated scf accuracy    <       0.00000020 Ry

     iteration # 26     ecut=    50.00 Ry     beta= 0.70
     Davidson diagonalization with overlap
     ethr =  1.42E-10,  avg # of iterations =  2.0

     negative rho (up, down):  1.115E-02 0.000E+00

     total cpu time spent up to now is     1051.8 secs

     total energy              =    -440.46750167 Ry
     estimated scf accuracy    <       0.00000016 Ry

     iteration # 27     ecut=    50.00 Ry     beta= 0.70
     Davidson diagonalization with overlap
     ethr =  1.11E-10,  avg # of iterations =  6.0

     negative rho (up, down):  1.101E-02 0.000E+00

     total cpu time spent up to now is     1100.1 secs

     total energy              =    -440.46750166 Ry
     estimated scf accuracy    <       0.00000017 Ry

     iteration # 28     ecut=    50.00 Ry     beta= 0.70
     Davidson diagonalization with overlap
     ethr =  1.11E-10,  avg # of iterations =  6.0

     negative rho (up, down):  1.114E-02 0.000E+00

     total cpu time spent up to now is     1104.1 secs

     End of self-consistent calculation

          k = 0.0000 0.0000 0.0000 (372875 PWs)   bands (ev):

   -27.2360 -27.1415 -25.6558 -23.7043 -21.6693 -21.6054 -21.2687 -19.9219
   -19.4107 -19.1217 -19.0354 -18.7200 -18.6108 -18.2290 -17.5072 -17.4315
   -16.6533 -15.9449 -15.3065 -15.2013 -15.1453 -14.9656 -14.2468 -14.0342
   -13.5396 -13.2766 -12.9343 -12.8358 -12.3693 -12.1699 -12.1388 -11.8291
   -11.8027 -11.7137 -11.6997 -11.5698 -11.1165 -10.9318 -10.7106 -10.5506
   -10.5235 -10.3594 -10.2987 -10.2131 -10.0812  -9.8799  -9.7863  -9.6305
    -9.3985  -9.3465  -9.1638  -9.0119  -8.8953  -8.8000  -8.6506  -8.5951
    -8.2495  -8.2197  -8.0725  -7.9409  -7.8456  -7.3301  -6.9914  -6.5010
    -6.3223  -5.9448  -5.7523  -5.6078  -5.5481  -5.4449

     highest occupied level (ev):    -5.4449

!    total energy              =    -440.46750163 Ry
     estimated scf accuracy    <       0.00000008 Ry

     The total energy is the sum of the following terms:
     one-electron contribution =   -4870.03918837 Ry
     hartree contribution      =    2451.75932147 Ry
     xc contribution           =    -154.10475739 Ry
     ewald contribution        =    2132.03859189 Ry
     DFT-D3 Dispersion         =      -0.12146923 Ry

     convergence has been achieved in  28 iterations

     negative rho (up, down):  1.114E-02 0.000E+00

     Forces acting on atoms (cartesian axes, Ry/au):

     atom    1 type  1   force =    -0.00646508   -0.01291848   -0.05385739
     atom    2 type  1   force =    -0.00669122   -0.00561847   -0.01945871
     atom    3 type  1   force =    -0.00727171   -0.01145782   -0.01697134
     atom    4 type  2   force =     0.02582942   -0.00582473    0.01486027
     atom    5 type  3   force =    -0.00205986    0.00620237    0.00404122
     atom    6 type  4   force =    -0.00266419    0.00689273    0.00389629
     atom    7 type  3   force =     0.00286988    0.00110196    0.00706200
     atom    8 type  4   force =     0.00306399    0.00175327    0.00753297
     atom    9 type  3   force =     0.00632132   -0.00392155    0.00610312
     atom   10 type  4   force =     0.00544611   -0.00478116    0.00381878
     atom   11 type  3   force =    -0.00435587    0.00733007    0.00171873
     atom   12 type  3   force =    -0.00113399   -0.00388589   -0.00728865
     atom   13 type  4   force =    -0.00299965   -0.00172598   -0.00757286
     atom   14 type  3   force =    -0.01008050    0.00925746   -0.00628613
     atom   15 type  3   force =     0.01169194   -0.01409151    0.00065851
     atom   16 type  4   force =    -0.00192851   -0.00280299   -0.00825794
     atom   17 type  3   force =    -0.00809645    0.01194691    0.00326972
     atom   18 type  4   force =     0.00127377    0.00288000    0.00845447
     atom   19 type  3   force =     0.00552486    0.01012720    0.04363243
     atom   20 type  3   force =     0.00567566   -0.00690937   -0.00233782
     atom   21 type  3   force =    -0.00149539    0.00194053   -0.00665942
     atom   22 type  4   force =     0.00097389   -0.00141600   -0.00840214
     atom   23 type  3   force =    -0.00230094    0.00309835   -0.00752673
     atom   24 type  4   force =    -0.00387589    0.00558201   -0.00509191
     atom   25 type  3   force =    -0.00107861    0.00618211    0.00510099
     atom   26 type  3   force =     0.00172566   -0.00196653    0.00814609
     atom   27 type  4   force =    -0.00093563    0.00145367    0.00816876
     atom   28 type  3   force =     0.00222522   -0.00304729    0.00660862
     atom   29 type  4   force =     0.00416969   -0.00523285    0.00524268
     atom   30 type  3   force =    -0.02752534    0.01486921   -0.00635904
     atom   31 type  4   force =    -0.00455791   -0.00529655   -0.00709762
     atom   32 type  3   force =     0.00793981   -0.00984465   -0.00482085
     atom   33 type  3   force =    -0.00430271   -0.00326748   -0.00640241
     atom   34 type  4   force =    -0.00206643   -0.00478810   -0.00645761
     atom   35 type  3   force =     0.00730091   -0.00346211    0.00204265
     atom   36 type  3   force =    -0.00351603    0.00734802    0.00519460
     atom   37 type  4   force =    -0.00448630    0.00629484    0.00275449
     atom   38 type  3   force =     0.00181322    0.00459211    0.00568896
     atom   39 type  4   force =     0.00221097    0.00461900    0.00648341
     atom   40 type  3   force =     0.00660108   -0.00082019    0.00436094
     atom   41 type  4   force =     0.00705811   -0.00202245    0.00367276
     atom   42 type  3   force =     0.00823169   -0.00911879    0.00274932
     atom   43 type  4   force =     0.00128242   -0.00580414   -0.00500446
     atom   44 type  4   force =    -0.00233699   -0.00329910    0.00760310
     atom   45 type  4   force =     0.00767165    0.00373986    0.00210232
     atom   46 type  3   force =    -0.00907803    0.00850006    0.00143414
     atom   47 type  4   force =    -0.00640956    0.00012134   -0.00483821
     atom   48 type  4   force =     0.00359699    0.00813626    0.00004296
     atom   49 type  4   force =    -0.00278547   -0.00064518    0.00824595
     The Martyna-Tuckerman correction term to forces
     atom    1 type  1   force =     0.00033876   -0.00011579   -0.00142208
     atom    2 type  1   force =     0.00045575   -0.00049072   -0.00157707
     atom    3 type  1   force =    -0.00033343    0.00045002   -0.00083946
     atom    4 type  2   force =    -0.00027594    0.00054099   -0.00130583
     atom    5 type  3   force =     0.00042451   -0.00025742   -0.00150960
     atom    6 type  4   force =     0.00011149   -0.00004331   -0.00042143
     atom    7 type  3   force =     0.00052096   -0.00036291   -0.00147829
     atom    8 type  4   force =     0.00017072   -0.00010398   -0.00040705
     atom    9 type  3   force =     0.00044704   -0.00038197   -0.00125505
     atom   10 type  4   force =     0.00013022   -0.00010878   -0.00029253
     atom   11 type  3   force =     0.00034672   -0.00031589   -0.00116037
     atom   12 type  3   force =     0.00032221   -0.00026973   -0.00118523
     atom   13 type  4   force =     0.00007823   -0.00006105   -0.00027639
     atom   14 type  3   force =     0.00032940   -0.00023739   -0.00131000
     atom   15 type  3   force =     0.00027387   -0.00016971   -0.00123551
     atom   16 type  4   force =     0.00007150   -0.00004490   -0.00027565
     atom   17 type  3   force =     0.00022219   -0.00008201   -0.00130552
     atom   18 type  4   force =     0.00005833   -0.00000812   -0.00037810
     atom   19 type  3   force =     0.00017015   -0.00003074   -0.00111502
     atom   20 type  3   force =     0.00006999    0.00009076   -0.00114483
     atom   21 type  3   force =     0.00005460    0.00012927   -0.00092502
     atom   22 type  4   force =     0.00003140    0.00001831   -0.00019601
     atom   23 type  3   force =    -0.00003851    0.00023425   -0.00091025
     atom   24 type  4   force =    -0.00001081    0.00006354   -0.00019101
     atom   25 type  3   force =    -0.00013228    0.00033296   -0.00110498
     atom   26 type  3   force =    -0.00013270    0.00033961   -0.00139695
     atom   27 type  4   force =    -0.00005908    0.00012044   -0.00040777
     atom   28 type  3   force =    -0.00001313    0.00018555   -0.00141516
     atom   29 type  4   force =     0.00000423    0.00003547   -0.00041664
     atom   30 type  3   force =    -0.00025062    0.00038312   -0.00087923
     atom   31 type  4   force =    -0.00005663    0.00007714   -0.00019950
     atom   32 type  3   force =    -0.00029242    0.00041924   -0.00078518
     atom   33 type  3   force =    -0.00027301    0.00035481   -0.00067511
     atom   34 type  4   force =    -0.00006209    0.00008020   -0.00016289
     atom   35 type  3   force =    -0.00026953    0.00034486   -0.00059498
     atom   36 type  3   force =    -0.00030386    0.00049608   -0.00055418
     atom   37 type  4   force =    -0.00006240    0.00054735   -0.00011625
     atom   38 type  3   force =    -0.00034570    0.00053102   -0.00064516
     atom   39 type  4   force =    -0.00009229    0.00023471   -0.00014967
     atom   40 type  3   force =    -0.00033115    0.00051882   -0.00079817
     atom   41 type  4   force =    -0.00008331    0.00015450   -0.00023186
     atom   42 type  3   force =     0.00032216   -0.00115931   -0.00096364
     atom   43 type  4   force =     0.00004369   -0.00084927   -0.00022288
     atom   44 type  4   force =     0.00006283   -0.00062754   -0.00023695
     atom   45 type  4   force =     0.00039566   -0.00009859   -0.00023839
     atom   46 type  3   force =    -0.00024482    0.00075153   -0.00048745
     atom   47 type  4   force =    -0.00030565    0.00015840   -0.00012626
     atom   48 type  4   force =     0.00000039    0.00091535   -0.00012481
     atom   49 type  4   force =    -0.00011347    0.00013352   -0.00010092
     The non-local contrib.  to forces
     atom    1 type  1   force =     0.30118737    0.56773434    2.44312754
     atom    2 type  1   force =     0.86967575    0.49065611    2.15133498
     atom    3 type  1   force =     0.61046826    1.30052164    1.88387343
     atom    4 type  2   force =    -0.62153790   -0.70905285   -1.24344442
     atom    5 type  3   force =    -0.01555620    0.00811501   -0.01747893
     atom    6 type  4   force =     0.02310111   -0.06497387   -0.03797046
     atom    7 type  3   force =     0.02919930   -0.03300891    0.01352418
     atom    8 type  4   force =    -0.02828741   -0.01739868   -0.07156416
     atom    9 type  3   force =    -0.00090044   -0.02941405   -0.04175421
     atom   10 type  4   force =    -0.05283659    0.04615156   -0.03642547
     atom   11 type  3   force =     0.13361381   -0.38103449   -0.23580538
     atom   12 type  3   force =     0.03349702   -0.03513025    0.02874753
     atom   13 type  4   force =     0.02663320    0.01883608    0.07206233
     atom   14 type  3   force =    -0.04509446    0.02709251   -0.04519821
     atom   15 type  3   force =     0.07098497   -0.07238143    0.04556857
     atom   16 type  4   force =     0.01916318    0.01893199    0.07503527
     atom   17 type  3   force =    -0.03638879    0.05497526    0.02273486
     atom   18 type  4   force =    -0.01363689   -0.02518390   -0.07307834
     atom   19 type  3   force =    -0.01499023   -0.01795120   -0.09353022
     atom   20 type  3   force =     0.01756074   -0.00690619    0.01464822
     atom   21 type  3   force =    -0.00128532    0.01181871    0.04603002
     atom   22 type  4   force =    -0.00805630    0.01387627    0.07897316
     atom   23 type  3   force =    -0.01009223    0.02758351    0.03143621
     atom   24 type  4   force =     0.03397129   -0.05018272    0.05027204
     atom   25 type  3   force =    -0.09455301    0.22683425    0.10144112
     atom   26 type  3   force =    -0.03117801   -0.01920330   -0.02010952
     atom   27 type  4   force =     0.00662109   -0.01284708   -0.07802229
     atom   28 type  3   force =    -0.00065830   -0.02036553    0.00791653
     atom   29 type  4   force =    -0.03526601    0.04832117   -0.05169706
     atom   30 type  3   force =     0.07149137    0.02535459    0.08211382
     atom   31 type  4   force =     0.02922698    0.03993813    0.05775924
     atom   32 type  3   force =     0.01045562   -0.06130620   -0.05410608
     atom   33 type  3   force =    -0.02197214    0.03491498    0.00858136
     atom   34 type  4   force =     0.02396912    0.04275747    0.06162891
     atom   35 type  3   force =    -0.39146820    0.07615050   -0.23817678
     atom   36 type  3   force =    -0.03805525   -0.01291865   -0.03938442
     atom   37 type  4   force =     0.04390101   -0.06041739   -0.02609869
     atom   38 type  3   force =    -0.03889401    0.03383244    0.00276130
     atom   39 type  4   force =    -0.02183604   -0.04399626   -0.06188034
     atom   40 type  3   force =    -0.03891319   -0.01556682   -0.04331987
     atom   41 type  4   force =    -0.06916726    0.01815069   -0.03650103
     atom   42 type  3   force =    -0.28948546    0.28322262   -0.16167017
     atom   43 type  4   force =    -0.01093780    0.05828352    0.05273074
     atom   44 type  4   force =     0.02567491    0.03103266   -0.06535522
     atom   45 type  4   force =    -0.06752550   -0.03427682   -0.01261570
     atom   46 type  3   force =     0.27787798   -0.31773356   -0.11655031
     atom   47 type  4   force =     0.06194812    0.00104254    0.04955445
     atom   48 type  4   force =    -0.03363232   -0.06892079    0.00471436
     atom   49 type  4   force =     0.02588296    0.01110059   -0.07145800
     The ionic contribution  to forces
     atom    1 type  1   force =    -1.96348478   -4.81800099  -18.48752327
     atom    2 type  1   force =     0.44539457   -9.32440104  -11.02375734
     atom    3 type  1   force =   -10.02795767   -1.81945110  -10.07439030
     atom    4 type  2   force =     3.83636791    4.50476552    7.37912953
     atom    5 type  3   force =     0.98057202    3.93311128    5.73916901
     atom    6 type  4   force =    -0.04761505    2.35454168    2.42365310
     atom    7 type  3   force =     4.49681280    0.80562363    8.23543928
     atom    8 type  4   force =     1.67918126    0.58362522    3.45731748
     atom    9 type  3   force =     6.02344842   -3.54308169    5.84138428
     atom   10 type  4   force =     2.67840140   -1.85250096    2.32743452
     atom   11 type  3   force =     1.41047119   -1.77330029   -0.01706203
     atom   12 type  3   force =    -1.28926791   -2.72467194   -6.14271741
     atom   13 type  4   force =    -0.99856136   -1.27868796   -3.44686460
     atom   14 type  3   force =    -0.17087056    0.19667746   -0.79230867
     atom   15 type  3   force =     0.46601066   -2.51673284   -3.73136024
     atom   16 type  4   force =    -0.39558112   -1.41441229   -3.28659997
     atom   17 type  3   force =     1.35132532    0.63832448    3.33937146
     atom   18 type  4   force =     0.88827566    0.87577331    2.99832154
     atom   19 type  3   force =     0.81921254   -0.24486882    1.52877565
     atom   20 type  3   force =     0.75845173   -0.84178970   -0.59683319
     atom   21 type  3   force =    -0.72490651    1.24830086   -7.89170228
     atom   22 type  4   force =    -0.15006467    0.23727102   -3.87513527
     atom   23 type  3   force =    -2.03437394    3.76886857   -6.60572039
     atom   24 type  4   force =    -1.10135619    2.04135768   -3.02013189
     atom   25 type  3   force =     0.27158486    1.12913736    0.96939524
     atom   26 type  3   force =     0.74080325    0.06204086    8.29850695
     atom   27 type  4   force =     0.06447868    0.23157934    3.88286822
     atom   28 type  3   force =     2.19375201   -2.67606757    6.43576702
     atom   29 type  4   force =     1.09992752   -1.59770808    3.00379736
     atom   30 type  3   force =    -4.42851530   -0.49776796   -3.25705357
     atom   31 type  4   force =    -1.95091756   -1.54050638   -2.54831843
     atom   32 type  3   force =    -0.05002326   -0.19815767   -0.21101960
     atom   33 type  3   force =    -3.29639435   -2.66997467   -5.14803790
     atom   34 type  4   force =    -1.56740903   -1.77629519   -2.93151614
     atom   35 type  3   force =    -1.79505409    1.44619242   -0.01527603
     atom   36 type  3   force =    -3.05940230    7.30926947    4.71457604
     atom   37 type  4   force =    -1.68232660    3.17890859    1.80347909
     atom   38 type  3   force =     1.53300992    6.30905834    7.21628991
     atom   39 type  4   force =     0.85753437    2.42495562    2.99703747
     atom   40 type  3   force =     4.60969182    2.36221762    5.67986895
     atom   41 type  4   force =     2.65779599    0.38550413    2.36638226
     atom   42 type  3   force =     6.63896769   -8.54652815    0.91460796
     atom   43 type  4   force =     1.20736579   -3.17585728   -1.83401203
     atom   44 type  4   force =    -0.03423767   -2.70047133    2.43741613
     atom   45 type  4   force =     3.66748896   -0.10089465    0.36565686
     atom   46 type  3   force =    -8.60482761    6.67826634    0.17206538
     atom   47 type  4   force =    -3.32763511    0.76863018   -1.79626827
     atom   48 type  4   force =    -0.14981292    3.66339347   -0.39465015
     atom   49 type  4   force =    -2.52573079    0.49473413    2.60054825
     The local contribution  to forces
     atom    1 type  1   force =     1.65747521    4.24122738   16.00809697
     atom    2 type  1   force =    -1.31423122    8.83173361    8.87258520
     atom    3 type  1   force =     9.41467729    0.51867174    8.19015147
     atom    4 type  2   force =    -3.19480862   -3.81366579   -6.13672239
     atom    5 type  3   force =    -0.96862757   -3.93282110   -5.71567409
     atom    6 type  4   force =     0.02185079   -2.28245007   -2.38100490
     atom    7 type  3   force =    -4.52200646   -0.77158758   -8.23784711
     atom    8 type  4   force =    -1.64786692   -0.56427616   -3.37746387
     atom    9 type  3   force =    -6.01530061    3.56740872   -5.79158365
     atom   10 type  4   force =    -2.62002779    1.80158454   -2.28661645
     atom   11 type  3   force =    -1.54548667    2.15288593    0.25034853
     atom   12 type  3   force =     1.25410618    2.75527428    6.10635870
     atom   13 type  4   force =     0.96876675    1.25803877    3.36716817
     atom   14 type  3   force =     0.20374381   -0.21258919    0.83132479
     atom   15 type  3   force =    -0.52257595    2.57098940    3.68714205
     atom   16 type  4   force =     0.37434283    1.39266517    3.20331402
     atom   17 type  3   force =    -1.32562411   -0.67732529   -3.35581355
     atom   18 type  4   force =    -0.87335837   -0.84762723   -2.91623116
     atom   19 type  3   force =    -0.79826516    0.27449516   -1.38455999
     atom   20 type  3   force =    -0.76911016    0.84024267    0.58068683
     atom   21 type  3   force =     0.72481044   -1.25848943    7.83859218
     atom   22 type  4   force =     0.15900494   -0.25249435    3.78758221
     atom   23 type  3   force =     2.04094262   -3.79147731    6.56693702
     atom   24 type  4   force =     1.06352294   -1.98553415    2.96457286
     atom   25 type  3   force =    -0.18058854   -1.34457052   -1.06243864
     atom   26 type  3   force =    -0.70850575   -0.04501864   -8.26679390
     atom   27 type  4   force =    -0.07190325   -0.21744725   -3.79586980
     atom   28 type  3   force =    -2.18988175    2.69166585   -6.43436519
     atom   29 type  4   force =    -1.06052382    1.54410547   -2.94602488
     atom   30 type  3   force =     4.32610581    0.48865183    3.16854231
     atom   31 type  4   force =     1.91700224    1.49512903    2.48354093
     atom   32 type  3   force =     0.04907864    0.24708806    0.26000745
     atom   33 type  3   force =     3.31343443    2.63066164    5.13214335
     atom   34 type  4   force =     1.54125443    1.72852268    2.86331705
     atom   35 type  3   force =     2.18481039   -1.52412828    0.25061100
     atom   36 type  3   force =     3.09280144   -7.28803561   -4.66908292
     atom   37 type  4   force =     1.63392646   -3.11246885   -1.77429556
     atom   38 type  3   force =    -1.49240057   -6.33664023   -7.21076934
     atom   39 type  4   force =    -0.83329086   -2.37637770   -2.92824486
     atom   40 type  3   force =    -4.56261504   -2.34879072   -5.63118568
     atom   41 type  4   force =    -2.58129143   -0.40567034   -2.32567138
     atom   42 type  3   force =    -6.34795858    8.26143892   -0.75282775
     atom   43 type  4   force =    -1.19508031    3.11237247    1.77638848
     atom   44 type  4   force =     0.00625772    2.66642912   -2.36418771
     atom   45 type  4   force =    -3.59241459    0.13879665   -0.35076756
     atom   46 type  3   force =     8.32413379   -6.35981569   -0.05616604
     atom   47 type  4   force =     3.25934236   -0.76962520    1.74190099
     atom   48 type  4   force =     0.18681509   -3.58701788    0.38999973
     atom   49 type  4   force =     2.49684732   -0.50650848   -2.52072170
     The core correction contribution to forces
     atom    1 type  1   force =    -0.00206281   -0.00376706   -0.01642366
     atom    2 type  1   force =    -0.00792230   -0.00347316   -0.01835400
     atom    3 type  1   force =    -0.00449701   -0.01159266   -0.01600721
     atom    4 type  2   force =     0.00616095    0.01164075    0.01732680
     atom    5 type  3   force =     0.00135397   -0.00201851   -0.00021603
     atom    6 type  4   force =     0.00000000    0.00000000    0.00000000
     atom    7 type  3   force =    -0.00149021    0.00052140   -0.00218979
     atom    8 type  4   force =     0.00000000    0.00000000    0.00000000
     atom    9 type  3   force =    -0.00133266    0.00166615   -0.00046445
     atom   10 type  4   force =     0.00000000    0.00000000    0.00000000
     atom   11 type  3   force =    -0.00320693    0.00897262    0.00541807
     atom   12 type  3   force =     0.00016167    0.00090573    0.00140520
     atom   13 type  4   force =     0.00000000    0.00000000    0.00000000
     atom   14 type  3   force =     0.00197935   -0.00183538    0.00127615
     atom   15 type  3   force =    -0.00304532    0.00410679    0.00021727
     atom   16 type  4   force =     0.00000000    0.00000000    0.00000000
     atom   17 type  3   force =     0.00228934   -0.00385738   -0.00188738
     atom   18 type  4   force =     0.00000000    0.00000000    0.00000000
     atom   19 type  3   force =    -0.00060522   -0.00155564   -0.00612625
     atom   20 type  3   force =    -0.00145791    0.00163363    0.00023497
     atom   21 type  3   force =    -0.00020894    0.00030335    0.00119667
     atom   22 type  4   force =     0.00000000    0.00000000    0.00000000
     atom   23 type  3   force =     0.00134134   -0.00202680    0.00058210
     atom   24 type  4   force =     0.00000000    0.00000000    0.00000000
     atom   25 type  3   force =     0.00247710   -0.00551638   -0.00230189
     atom   26 type  3   force =     0.00078633   -0.00007400   -0.00177543
     atom   27 type  4   force =     0.00000000    0.00000000    0.00000000
     atom   28 type  3   force =    -0.00118222    0.00177852   -0.00108450
     atom   29 type  4   force =     0.00000000    0.00000000    0.00000000
     atom   30 type  3   force =     0.00373129   -0.00200200    0.00076154
     atom   31 type  4   force =     0.00000000    0.00000000    0.00000000
     atom   32 type  3   force =    -0.00145998    0.00234809    0.00122524
     atom   33 type  3   force =     0.00090949    0.00068838    0.00152221
     atom   34 type  4   force =     0.00000000    0.00000000    0.00000000
     atom   35 type  3   force =     0.00918930   -0.00192924    0.00549552
     atom   36 type  3   force =     0.00160518   -0.00138357   -0.00015910
     atom   37 type  4   force =     0.00000000    0.00000000    0.00000000
     atom   38 type  3   force =     0.00055720   -0.00200951   -0.00168475
     atom   39 type  4   force =     0.00000000    0.00000000    0.00000000
     atom   40 type  3   force =    -0.00128453    0.00103738   -0.00001404
     atom   41 type  4   force =     0.00000000    0.00000000    0.00000000
     atom   42 type  3   force =     0.00658863   -0.00646880    0.00350355
     atom   43 type  4   force =     0.00000000    0.00000000    0.00000000
     atom   44 type  4   force =     0.00000000    0.00000000    0.00000000
     atom   45 type  4   force =     0.00000000    0.00000000    0.00000000
     atom   46 type  3   force =    -0.00638663    0.00722044    0.00247617
     atom   47 type  4   force =     0.00000000    0.00000000    0.00000000
     atom   48 type  4   force =     0.00000000    0.00000000    0.00000000
     atom   49 type  4   force =     0.00000000    0.00000000    0.00000000
     The Hubbard contrib.    to forces
     atom    1 type  1   force =     0.00000000    0.00000000    0.00000000
     atom    2 type  1   force =     0.00000000    0.00000000    0.00000000
     atom    3 type  1   force =     0.00000000    0.00000000    0.00000000
     atom    4 type  2   force =     0.00000000    0.00000000    0.00000000
     atom    5 type  3   force =     0.00000000    0.00000000    0.00000000
     atom    6 type  4   force =     0.00000000    0.00000000    0.00000000
     atom    7 type  3   force =     0.00000000    0.00000000    0.00000000
     atom    8 type  4   force =     0.00000000    0.00000000    0.00000000
     atom    9 type  3   force =     0.00000000    0.00000000    0.00000000
     atom   10 type  4   force =     0.00000000    0.00000000    0.00000000
     atom   11 type  3   force =     0.00000000    0.00000000    0.00000000
     atom   12 type  3   force =     0.00000000    0.00000000    0.00000000
     atom   13 type  4   force =     0.00000000    0.00000000    0.00000000
     atom   14 type  3   force =     0.00000000    0.00000000    0.00000000
     atom   15 type  3   force =     0.00000000    0.00000000    0.00000000
     atom   16 type  4   force =     0.00000000    0.00000000    0.00000000
     atom   17 type  3   force =     0.00000000    0.00000000    0.00000000
     atom   18 type  4   force =     0.00000000    0.00000000    0.00000000
     atom   19 type  3   force =     0.00000000    0.00000000    0.00000000
     atom   20 type  3   force =     0.00000000    0.00000000    0.00000000
     atom   21 type  3   force =     0.00000000    0.00000000    0.00000000
     atom   22 type  4   force =     0.00000000    0.00000000    0.00000000
     atom   23 type  3   force =     0.00000000    0.00000000    0.00000000
     atom   24 type  4   force =     0.00000000    0.00000000    0.00000000
     atom   25 type  3   force =     0.00000000    0.00000000    0.00000000
     atom   26 type  3   force =     0.00000000    0.00000000    0.00000000
     atom   27 type  4   force =     0.00000000    0.00000000    0.00000000
     atom   28 type  3   force =     0.00000000    0.00000000    0.00000000
     atom   29 type  4   force =     0.00000000    0.00000000    0.00000000
     atom   30 type  3   force =     0.00000000    0.00000000    0.00000000
     atom   31 type  4   force =     0.00000000    0.00000000    0.00000000
     atom   32 type  3   force =     0.00000000    0.00000000    0.00000000
     atom   33 type  3   force =     0.00000000    0.00000000    0.00000000
     atom   34 type  4   force =     0.00000000    0.00000000    0.00000000
     atom   35 type  3   force =     0.00000000    0.00000000    0.00000000
     atom   36 type  3   force =     0.00000000    0.00000000    0.00000000
     atom   37 type  4   force =     0.00000000    0.00000000    0.00000000
     atom   38 type  3   force =     0.00000000    0.00000000    0.00000000
     atom   39 type  4   force =     0.00000000    0.00000000    0.00000000
     atom   40 type  3   force =     0.00000000    0.00000000    0.00000000
     atom   41 type  4   force =     0.00000000    0.00000000    0.00000000
     atom   42 type  3   force =     0.00000000    0.00000000    0.00000000
     atom   43 type  4   force =     0.00000000    0.00000000    0.00000000
     atom   44 type  4   force =     0.00000000    0.00000000    0.00000000
     atom   45 type  4   force =     0.00000000    0.00000000    0.00000000
     atom   46 type  3   force =     0.00000000    0.00000000    0.00000000
     atom   47 type  4   force =     0.00000000    0.00000000    0.00000000
     atom   48 type  4   force =     0.00000000    0.00000000    0.00000000
     atom   49 type  4   force =     0.00000000    0.00000000    0.00000000
     The SCF correction term to forces
     atom    1 type  1   force =     0.00001688   -0.00012740   -0.00025859
     atom    2 type  1   force =     0.00002344    0.00001781    0.00004263
     atom    3 type  1   force =     0.00001249   -0.00002642   -0.00001596
     atom    4 type  2   force =     0.00005490   -0.00002001    0.00005315
     atom    5 type  3   force =     0.00003400   -0.00004298   -0.00000005
     atom    6 type  4   force =     0.00000718   -0.00001100   -0.00000304
     atom    7 type  3   force =     0.00001044   -0.00002786   -0.00001985
     atom    8 type  4   force =    -0.00000176   -0.00000656   -0.00001185
     atom    9 type  3   force =    -0.00000416    0.00000748   -0.00000393
     atom   10 type  4   force =    -0.00000624    0.00000451   -0.00000676
     atom   11 type  3   force =     0.00000860    0.00000410    0.00001415
     atom   12 type  3   force =     0.00001835   -0.00001006    0.00001337
     atom   13 type  4   force =     0.00000425    0.00000239    0.00000876
     atom   14 type  3   force =     0.00002165   -0.00003078   -0.00000856
     atom   15 type  3   force =     0.00001964   -0.00003713   -0.00003078
     atom   16 type  4   force =     0.00000085   -0.00000055   -0.00000262
     atom   17 type  3   force =     0.00006688   -0.00008540   -0.00000659
     atom   18 type  4   force =     0.00001150   -0.00001195    0.00000258
     atom   19 type  3   force =     0.00001662   -0.00009656   -0.00018678
     atom   20 type  3   force =    -0.00001216    0.00000629   -0.00001177
     atom   21 type  3   force =     0.00002020   -0.00003459   -0.00004559
     atom   22 type  4   force =     0.00000859   -0.00001451   -0.00000731
     atom   23 type  3   force =     0.00004562   -0.00004929   -0.00001258
     atom   24 type  4   force =     0.00000798   -0.00000519   -0.00001011
     atom   25 type  3   force =     0.00003793   -0.00003231    0.00002176
     atom   26 type  3   force =     0.00002970   -0.00003326    0.00001158
     atom   27 type  4   force =     0.00000563   -0.00000582    0.00000414
     atom   28 type  3   force =     0.00001387   -0.00001335    0.00003142
     atom   29 type  4   force =     0.00000461   -0.00000516    0.00000350
     atom   30 type  3   force =     0.00001797   -0.00000828    0.00002924
     atom   31 type  4   force =    -0.00000366   -0.00000903   -0.00000428
     atom   32 type  3   force =    -0.00000940    0.00000004    0.00000440
     atom   33 type  3   force =    -0.00002338    0.00001638    0.00000521
     atom   34 type  4   force =    -0.00000685   -0.00000254   -0.00000594
     atom   35 type  3   force =    -0.00001052    0.00000467    0.00000059
     atom   36 type  3   force =    -0.00000999    0.00000366   -0.00000219
     atom   37 type  4   force =     0.00000254    0.00000341    0.00000534
     atom   38 type  3   force =    -0.00000691    0.00003316    0.00003430
     atom   39 type  4   force =     0.00000520    0.00000750    0.00001244
     atom   40 type  3   force =     0.00002858   -0.00000352    0.00002962
     atom   41 type  4   force =     0.00001580   -0.00000103    0.00001363
     atom   42 type  3   force =    -0.00000424    0.00001782    0.00000320
     atom   43 type  4   force =    -0.00000057    0.00000626    0.00000433
     atom   44 type  4   force =     0.00000166    0.00000670   -0.00000491
     atom   45 type  4   force =    -0.00000764    0.00000027   -0.00000013
     atom   46 type  3   force =    -0.00000265   -0.00001166   -0.00001665
     atom   47 type  4   force =    -0.00001139   -0.00000000   -0.00000926
     atom   48 type  4   force =     0.00000221    0.00001122   -0.00000359
     atom   49 type  4   force =    -0.00000732   -0.00000197    0.00000891

     DFT-D3 dispersion contribution to forces:
     atom    1 type  1   force =     0.00006469    0.00013528    0.00055031
     atom    2 type  1   force =    -0.00008681    0.00034316    0.00027150
     atom    3 type  1   force =     0.00035876   -0.00002680    0.00026132
     atom    4 type  2   force =    -0.00013149   -0.00002910   -0.00017195
     atom    5 type  3   force =    -0.00026019    0.00012032   -0.00024448
     atom    6 type  4   force =    -0.00011931   -0.00016647   -0.00035235
     atom    7 type  3   force =    -0.00017655   -0.00005158   -0.00036181
     atom    8 type  4   force =    -0.00013151   -0.00008234   -0.00033295
     atom    9 type  3   force =    -0.00003588   -0.00012195   -0.00021526
     atom   10 type  4   force =    -0.00021450    0.00009222   -0.00026991
     atom   11 type  3   force =    -0.00010222    0.00012231   -0.00002962
     atom   12 type  3   force =     0.00002888    0.00002030    0.00009380
     atom   13 type  4   force =     0.00007966    0.00015003    0.00033350
     atom   14 type  3   force =    -0.00018930    0.00018446   -0.00005701
     atom   15 type  3   force =     0.00002447    0.00013765    0.00036177
     atom   16 type  4   force =     0.00007464    0.00006182    0.00027563
     atom   17 type  3   force =     0.00001311    0.00000149    0.00018106
     atom   18 type  4   force =    -0.00007606   -0.00005788   -0.00017743
     atom   19 type  3   force =    -0.00001344    0.00013924    0.00037967
     atom   20 type  3   force =     0.00017383   -0.00018259    0.00008657
     atom   21 type  3   force =     0.00002055   -0.00008340    0.00019923
     atom   22 type  4   force =     0.00005032   -0.00006851    0.00038569
     atom   23 type  3   force =    -0.00012546   -0.00003034    0.00016578
     atom   24 type  4   force =    -0.00001072   -0.00011292    0.00040082
     atom   25 type  3   force =     0.00009573    0.00000098    0.00009300
     atom   26 type  3   force =    -0.00007676   -0.00001356   -0.00029200
     atom   27 type  4   force =    -0.00007831    0.00005828   -0.00039912
     atom   28 type  3   force =     0.00019514   -0.00022653   -0.00023688
     atom   29 type  4   force =     0.00002356    0.00002251   -0.00041498
     atom   30 type  3   force =    -0.00010547    0.00026214    0.00013148
     atom   31 type  4   force =     0.00019111    0.00007879    0.00012904
     atom   32 type  3   force =     0.00019101   -0.00023197   -0.00014246
     atom   33 type  3   force =     0.00001663    0.00007524    0.00006307
     atom   34 type  4   force =     0.00018839    0.00015353    0.00028603
     atom   35 type  3   force =     0.00010395   -0.00009281   -0.00001205
     atom   36 type  3   force =    -0.00015084   -0.00007913   -0.00019401
     atom   37 type  4   force =     0.00007308   -0.00027404   -0.00021482
     atom   38 type  3   force =    -0.00010631   -0.00020886   -0.00029268
     atom   39 type  4   force =    -0.00010902   -0.00020063   -0.00028700
     atom   40 type  3   force =     0.00002498   -0.00022871   -0.00021526
     atom   41 type  4   force =    -0.00021128   -0.00015615   -0.00031425
     atom   42 type  3   force =    -0.00019812    0.00036235    0.00010079
     atom   43 type  4   force =    -0.00010799    0.00024441    0.00011152
     atom   44 type  4   force =    -0.00009603    0.00033553   -0.00002363
     atom   45 type  4   force =    -0.00026486    0.00021724    0.00007186
     atom   46 type  3   force =     0.00037229   -0.00017309    0.00011765
     atom   47 type  4   force =     0.00025251   -0.00008034    0.00011475
     atom   48 type  4   force =     0.00022493   -0.00024087    0.00011204
     atom   49 type  4   force =     0.00033623   -0.00009873   -0.00002598

     Total force =     0.109244     Total SCF correction =     0.000430

     BFGS Geometry Optimization
     Energy error            =      0.0E+00 Ry
     Gradient error          =      5.4E-02 Ry/Bohr

     number of scf cycles    =   1
     number of bfgs steps    =   0

     energy             new  =    -440.4675016349 Ry

     new trust radius        =       0.0557611264 bohr
     new conv_thr            =       0.0000001000 Ry


ATOMIC_POSITIONS (angstrom)
O            16.3839998287       12.9882348353       12.0947808944
O            20.8135331612        7.5308888358       13.5944738950
O             8.3998289788       20.5099787834       14.4697781555
N            13.4735673429       17.5432946878       15.4658927153
C            19.5841999713       10.9224391534       15.6437125208
H            19.2603951722       11.8166724736       16.1615878295
C            20.5066486766       10.0807111337       16.2350490471
H            20.8972823956       10.3172277899       17.2185942755
C            20.9543940960        8.9253718052       15.5923026335
H            21.6767139552        8.2861699213       16.0802678127
C            20.4579979704        8.6258839038       14.3262965107
C            19.5342279196        9.4692146748       13.7198560099
H            19.1649316532        9.2166666528       12.7322046159
C            19.0785486276       10.6232288375       14.3639265237
C            18.1160201101       11.4444600958       13.6780474672
H            17.8651554754       11.1643237233       12.6527100862
C            17.4714345449       12.5340390308       14.1600182623
H            17.6564660478       12.8791010315       15.1708959152
C            16.5313966279       13.2773760858       13.3251822887
C            15.7517614312       14.3854167170       13.9034218800
C            15.0834606745       15.2604748848       13.0368959856
H            15.1848753601       15.0923566829       11.9701557781
C            14.3270573958       16.3067365772       13.5229930276
H            13.8509969654       17.0006178736       12.8389994764
C            14.1990392237       16.5056634305       14.9094643266
C            14.8807611821       15.6462483549       15.7786617271
H            14.7911848854       15.8153822512       16.8453167203
C            15.6360235346       14.6002154423       15.2827031294
H            16.1272735050       13.9359688933       15.9836763065
C            12.3274812154       17.8704674488       14.9389929422
H            11.9129270568       17.2908521842       14.1016731010
C            11.5379905676       18.9739764376       15.4224639170
C            10.3412971039       19.2617079263       14.7673299888
H            10.0203034921       18.6668512476       13.9188827791
C             9.5418004730       20.3177269277       15.1908129247
C             9.9289653986       21.0919764026       16.2817268660
H             9.3196869539       21.9150240842       16.6284516132
C            11.1271325141       20.7966050403       16.9353554684
H            11.4224159953       21.4031902716       17.7843888718
C            11.9343311404       19.7547689728       16.5209957080
H            12.8644709894       19.5201637654       17.0223805410
C            21.7612030208        6.6466425452       14.1751298770
H            21.9036216258        5.8520465823       13.4436397535
H            21.3857883207        6.2182611913       15.1138013851
H            22.7183406597        7.1517510489       14.3597875014
C             7.5382751122       21.5569860372       14.8933879127
H             6.6926432092       21.5332152123       14.2069247289
H             8.0345784431       22.5343155247       14.8308417331
H             7.1838509948       21.3909295862       15.9192815705



     Writing config-only to output data dir ./outdir/4amp15pbeiso.save/
     NEW-OLD atomic charge density approx. for the potential

     negative rho (up, down):  1.105E-02 0.000E+00

     total cpu time spent up to now is     1118.7 secs

     Self-consistent Calculation

     iteration #  1     ecut=    50.00 Ry     beta= 0.70
     Davidson diagonalization with overlap
     ethr =  1.00E-06,  avg # of iterations = 16.0

     negative rho (up, down):  1.292E-02 0.000E+00

     total cpu time spent up to now is     1227.5 secs

     total energy              =    -440.46820655 Ry
     estimated scf accuracy    <       0.00469583 Ry

     iteration #  2     ecut=    50.00 Ry     beta= 0.70
     Davidson diagonalization with overlap
     ethr =  3.35E-06,  avg # of iterations =  2.0

     negative rho (up, down):  1.697E-02 0.000E+00

     total cpu time spent up to now is     1309.1 secs

     total energy              =    -440.46774340 Ry
     estimated scf accuracy    <       0.00131629 Ry

     iteration #  3     ecut=    50.00 Ry     beta= 0.70
     Davidson diagonalization with overlap
     ethr =  9.40E-07,  avg # of iterations =  5.0

     negative rho (up, down):  1.683E-02 0.000E+00

     total cpu time spent up to now is     1372.6 secs

     total energy              =    -440.46810121 Ry
     estimated scf accuracy    <       0.00039607 Ry

     iteration #  4     ecut=    50.00 Ry     beta= 0.70
     Davidson diagonalization with overlap
     ethr =  2.83E-07,  avg # of iterations =  4.0

     negative rho (up, down):  1.662E-02 0.000E+00

     total cpu time spent up to now is     1424.7 secs

     total energy              =    -440.46805083 Ry
     estimated scf accuracy    <       0.00020798 Ry

     iteration #  5     ecut=    50.00 Ry     beta= 0.70
     Davidson diagonalization with overlap
     ethr =  1.49E-07,  avg # of iterations = 11.0

     negative rho (up, down):  1.637E-02 0.000E+00

     total cpu time spent up to now is     1456.0 secs

     total energy              =    -440.46808670 Ry
     estimated scf accuracy    <       0.00015140 Ry

     iteration #  6     ecut=    50.00 Ry     beta= 0.70
     Davidson diagonalization with overlap
     ethr =  1.08E-07,  avg # of iterations =  7.0

     negative rho (up, down):  1.532E-02 0.000E+00

     total cpu time spent up to now is     1507.1 secs

     total energy              =    -440.46811158 Ry
     estimated scf accuracy    <       0.00005653 Ry

     iteration #  7     ecut=    50.00 Ry     beta= 0.70
     Davidson diagonalization with overlap
     ethr =  4.04E-08,  avg # of iterations =  6.0

     negative rho (up, down):  1.404E-02 0.000E+00

     total cpu time spent up to now is     1556.7 secs

     total energy              =    -440.46809987 Ry
     estimated scf accuracy    <       0.00003956 Ry

     iteration #  8     ecut=    50.00 Ry     beta= 0.70
     Davidson diagonalization with overlap
     ethr =  2.83E-08,  avg # of iterations =  6.0

     negative rho (up, down):  1.342E-02 0.000E+00

     total cpu time spent up to now is     1622.1 secs

     total energy              =    -440.46810557 Ry
     estimated scf accuracy    <       0.00000855 Ry

     iteration #  9     ecut=    50.00 Ry     beta= 0.70
     Davidson diagonalization with overlap
     ethr =  6.11E-09,  avg # of iterations = 10.0

     negative rho (up, down):  1.278E-02 0.000E+00

     total cpu time spent up to now is     1670.9 secs

     total energy              =    -440.46810723 Ry
     estimated scf accuracy    <       0.00000575 Ry

     iteration # 10     ecut=    50.00 Ry     beta= 0.70
     Davidson diagonalization with overlap
     ethr =  4.11E-09,  avg # of iterations =  2.0

     negative rho (up, down):  1.191E-02 0.000E+00

     total cpu time spent up to now is     1720.2 secs

     total energy              =    -440.46810605 Ry
     estimated scf accuracy    <       0.00000398 Ry

     iteration # 11     ecut=    50.00 Ry     beta= 0.70
     Davidson diagonalization with overlap
     ethr =  2.85E-09,  avg # of iterations =  5.0

     negative rho (up, down):  1.155E-02 0.000E+00

     total cpu time spent up to now is     1770.5 secs

     total energy              =    -440.46810560 Ry
     estimated scf accuracy    <       0.00000194 Ry

     iteration # 12     ecut=    50.00 Ry     beta= 0.70
     Davidson diagonalization with overlap
     ethr =  1.39E-09,  avg # of iterations =  7.0

     negative rho (up, down):  1.146E-02 0.000E+00

     total cpu time spent up to now is     1817.8 secs

     total energy              =    -440.46810597 Ry
     estimated scf accuracy    <       0.00000111 Ry

     iteration # 13     ecut=    50.00 Ry     beta= 0.70
     Davidson diagonalization with overlap
     ethr =  7.90E-10,  avg # of iterations =  4.0

     negative rho (up, down):  1.114E-02 0.000E+00

     total cpu time spent up to now is     1890.6 secs

     total energy              =    -440.46810577 Ry
     estimated scf accuracy    <       0.00000057 Ry

     iteration # 14     ecut=    50.00 Ry     beta= 0.70
     Davidson diagonalization with overlap
     ethr =  4.04E-10,  avg # of iterations = 10.0

     negative rho (up, down):  1.116E-02 0.000E+00

     total cpu time spent up to now is     1949.1 secs

     total energy              =    -440.46810586 Ry
     estimated scf accuracy    <       0.00000109 Ry

     iteration # 15     ecut=    50.00 Ry     beta= 0.70
     Davidson diagonalization with overlap
     ethr =  4.04E-10,  avg # of iterations =  6.0

     negative rho (up, down):  1.111E-02 0.000E+00

     total cpu time spent up to now is     1995.0 secs

     total energy              =    -440.46810582 Ry
     estimated scf accuracy    <       0.00000030 Ry

     iteration # 16     ecut=    50.00 Ry     beta= 0.70
     Davidson diagonalization with overlap
     ethr =  2.15E-10,  avg # of iterations =  6.0

     negative rho (up, down):  1.111E-02 0.000E+00

     total cpu time spent up to now is     2073.1 secs

     total energy              =    -440.46810586 Ry
     estimated scf accuracy    <       0.00000016 Ry

     iteration # 17     ecut=    50.00 Ry     beta= 0.70
     Davidson diagonalization with overlap
     ethr =  1.12E-10,  avg # of iterations =  2.0

     negative rho (up, down):  1.103E-02 0.000E+00

     total cpu time spent up to now is     2173.9 secs

     total energy              =    -440.46810584 Ry
     estimated scf accuracy    <       0.00000012 Ry

     iteration # 18     ecut=    50.00 Ry     beta= 0.70
     Davidson diagonalization with overlap
     ethr =  8.27E-11,  avg # of iterations =  6.0

     negative rho (up, down):  1.104E-02 0.000E+00

     total cpu time spent up to now is     2177.8 secs

     End of self-consistent calculation

          k = 0.0000 0.0000 0.0000 (372875 PWs)   bands (ev):

   -27.0870 -26.9825 -24.8346 -23.5643 -21.6799 -21.6067 -21.2011 -19.9277
   -19.4701 -19.1102 -19.0141 -18.7325 -18.5885 -18.1836 -17.5022 -17.4156
   -16.7254 -16.0239 -15.3143 -15.2270 -15.1564 -14.9665 -14.2416 -14.0143
   -13.5136 -13.2609 -12.9287 -12.8322 -12.3516 -12.1565 -12.1189 -11.8082
   -11.7471 -11.6644 -11.6493 -11.5774 -11.1556 -10.9286 -10.7144 -10.5697
   -10.5268 -10.3262 -10.2851 -10.1627  -9.9969  -9.8489  -9.7032  -9.6169
    -9.3479  -9.3006  -9.1287  -9.0342  -8.9134  -8.8035  -8.5946  -8.5536
    -8.2165  -8.1992  -8.1201  -7.9872  -7.8016  -7.3204  -7.0053  -6.4989
    -6.3196  -5.9019  -5.7745  -5.5978  -5.5392  -5.3098

     highest occupied level (ev):    -5.3098

!    total energy              =    -440.46810581 Ry
     estimated scf accuracy    <       0.00000007 Ry

     The total energy is the sum of the following terms:
     one-electron contribution =   -4863.04126791 Ry
     hartree contribution      =    2448.27826998 Ry
     xc contribution           =    -153.89989429 Ry
     ewald contribution        =    2128.31616375 Ry
     DFT-D3 Dispersion         =      -0.12137734 Ry

     convergence has been achieved in  18 iterations

     negative rho (up, down):  1.104E-02 0.000E+00

     Forces acting on atoms (cartesian axes, Ry/au):

     atom    1 type  1   force =     0.00797056    0.01386185    0.06272203
     atom    2 type  1   force =    -0.00069491   -0.00133928   -0.00340331
     atom    3 type  1   force =    -0.00183392   -0.00192664   -0.00265390
     atom    4 type  2   force =    -0.03903916    0.01784283   -0.00812821
     atom    5 type  3   force =    -0.00035695    0.00038771    0.00011016
     atom    6 type  4   force =    -0.00215203    0.00624016    0.00387710
     atom    7 type  3   force =    -0.00033535    0.00185714    0.00214115
     atom    8 type  4   force =     0.00269883    0.00184079    0.00702855
     atom    9 type  3   force =     0.00026797    0.00149837    0.00224181
     atom   10 type  4   force =     0.00563514   -0.00512709    0.00368966
     atom   11 type  3   force =     0.00211756   -0.00700366   -0.00476456
     atom   12 type  3   force =    -0.00513480    0.00690557   -0.00094527
     atom   13 type  4   force =    -0.00225209   -0.00221106   -0.00688438
     atom   14 type  3   force =     0.00710003   -0.00651683    0.00407491
     atom   15 type  3   force =    -0.01525907    0.01729368   -0.00407499
     atom   16 type  4   force =    -0.00032090   -0.00165265   -0.00228134
     atom   17 type  3   force =     0.00913926   -0.01163818    0.00050059
     atom   18 type  4   force =     0.00082009    0.00209624    0.00655739
     atom   19 type  3   force =    -0.00932502   -0.01869231   -0.08145853
     atom   20 type  3   force =    -0.00065132    0.00273423    0.00425847
     atom   21 type  3   force =     0.00040181   -0.00117201   -0.00427228
     atom   22 type  4   force =     0.00107360   -0.00132691   -0.00626130
     atom   23 type  3   force =    -0.00098083    0.00048823   -0.00019412
     atom   24 type  4   force =    -0.00315389    0.00517863   -0.00476188
     atom   25 type  3   force =     0.00578543   -0.00329255   -0.00166373
     atom   26 type  3   force =     0.00245391   -0.00210528    0.00280540
     atom   27 type  4   force =    -0.00068773    0.00114857    0.00751113
     atom   28 type  3   force =     0.00059767   -0.00091429    0.00288424
     atom   29 type  4   force =     0.00348830   -0.00455041    0.00469302
     atom   30 type  3   force =     0.04323504   -0.01756433    0.01249380
     atom   31 type  4   force =    -0.00391719   -0.00249529   -0.00371089
     atom   32 type  3   force =    -0.00776308    0.00851416    0.00167191
     atom   33 type  3   force =     0.00479657   -0.00409967   -0.00005085
     atom   34 type  4   force =    -0.00263828   -0.00382816   -0.00591695
     atom   35 type  3   force =    -0.00733407    0.00108683   -0.00489968
     atom   36 type  3   force =     0.00113897    0.00072384    0.00193572
     atom   37 type  4   force =    -0.00481151    0.00640560    0.00265169
     atom   38 type  3   force =     0.00241602    0.00026621    0.00193660
     atom   39 type  4   force =     0.00227378    0.00408852    0.00599577
     atom   40 type  3   force =     0.00074849    0.00001208    0.00021421
     atom   41 type  4   force =     0.00648914   -0.00165207    0.00367327
     atom   42 type  3   force =     0.00111437   -0.00235715   -0.00122422
     atom   43 type  4   force =     0.00221983   -0.00534610   -0.00282059
     atom   44 type  4   force =    -0.00088430   -0.00182897    0.00374941
     atom   45 type  4   force =     0.00407206    0.00163106    0.00116344
     atom   46 type  3   force =    -0.00271098    0.00075562   -0.00130006
     atom   47 type  4   force =    -0.00574250    0.00152268   -0.00287846
     atom   48 type  4   force =     0.00151692    0.00428149    0.00002415
     atom   49 type  4   force =    -0.00159147   -0.00002121    0.00394394
     The Martyna-Tuckerman correction term to forces
     atom    1 type  1   force =     0.00034599   -0.00011628   -0.00161237
     atom    2 type  1   force =     0.00047780   -0.00053410   -0.00174241
     atom    3 type  1   force =    -0.00035364    0.00046893   -0.00096604
     atom    4 type  2   force =    -0.00031017    0.00059042   -0.00148107
     atom    5 type  3   force =     0.00045790   -0.00028291   -0.00167403
     atom    6 type  4   force =     0.00012076   -0.00004773   -0.00046721
     atom    7 type  3   force =     0.00056541   -0.00039935   -0.00163601
     atom    8 type  4   force =     0.00018647   -0.00011430   -0.00044969
     atom    9 type  3   force =     0.00048177   -0.00042045   -0.00138891
     atom   10 type  4   force =     0.00014017   -0.00011964   -0.00032363
     atom   11 type  3   force =     0.00036837   -0.00034708   -0.00128553
     atom   12 type  3   force =     0.00033967   -0.00029461   -0.00131568
     atom   13 type  4   force =     0.00008157   -0.00006620   -0.00030730
     atom   14 type  3   force =     0.00034933   -0.00025901   -0.00145611
     atom   15 type  3   force =     0.00028707   -0.00018382   -0.00138007
     atom   16 type  4   force =     0.00007418   -0.00004794   -0.00030885
     atom   17 type  3   force =     0.00023106   -0.00008703   -0.00146068
     atom   18 type  4   force =     0.00006168   -0.00000877   -0.00042171
     atom   19 type  3   force =     0.00017116   -0.00002812   -0.00126248
     atom   20 type  3   force =     0.00006490    0.00010180   -0.00129424
     atom   21 type  3   force =     0.00004578    0.00014488   -0.00106049
     atom   22 type  4   force =     0.00002985    0.00002168   -0.00022787
     atom   23 type  3   force =    -0.00005324    0.00025638   -0.00104496
     atom   24 type  4   force =    -0.00001467    0.00006908   -0.00022304
     atom   25 type  3   force =    -0.00015355    0.00036424   -0.00125157
     atom   26 type  3   force =    -0.00015323    0.00037280   -0.00156875
     atom   27 type  4   force =    -0.00006642    0.00013244   -0.00045587
     atom   28 type  3   force =    -0.00002294    0.00020429   -0.00158794
     atom   29 type  4   force =     0.00000305    0.00003889   -0.00046519
     atom   30 type  3   force =    -0.00027895    0.00041519   -0.00100163
     atom   31 type  4   force =    -0.00006260    0.00008364   -0.00023012
     atom   32 type  3   force =    -0.00032213    0.00045241   -0.00089555
     atom   33 type  3   force =    -0.00029681    0.00037896   -0.00077619
     atom   34 type  4   force =    -0.00006682    0.00008549   -0.00018927
     atom   35 type  3   force =    -0.00029180    0.00036557   -0.00068229
     atom   36 type  3   force =    -0.00033113    0.00052465   -0.00063010
     atom   37 type  4   force =    -0.00006836    0.00056078   -0.00013208
     atom   38 type  3   force =    -0.00037991    0.00057104   -0.00072786
     atom   39 type  4   force =    -0.00010154    0.00024829   -0.00016750
     atom   40 type  3   force =    -0.00036618    0.00056286   -0.00090163
     atom   41 type  4   force =    -0.00009263    0.00016854   -0.00026045
     atom   42 type  3   force =     0.00033887   -0.00121360   -0.00106327
     atom   43 type  4   force =     0.00004602   -0.00086895   -0.00024569
     atom   44 type  4   force =     0.00006762   -0.00063755   -0.00026244
     atom   45 type  4   force =     0.00040725   -0.00010576   -0.00026288
     atom   46 type  3   force =    -0.00025710    0.00077305   -0.00055777
     atom   47 type  4   force =    -0.00031116    0.00016045   -0.00014418
     atom   48 type  4   force =    -0.00000152    0.00092812   -0.00014215
     atom   49 type  4   force =    -0.00011853    0.00013733   -0.00011596
     The non-local contrib.  to forces
     atom    1 type  1   force =     0.29495735    0.54798713    2.36824944
     atom    2 type  1   force =     0.86971275    0.49134547    2.15330197
     atom    3 type  1   force =     0.61270192    1.30239924    1.88485407
     atom    4 type  2   force =    -0.63087424   -0.70870051   -1.26356144
     atom    5 type  3   force =    -0.01377570    0.00176552   -0.02194093
     atom    6 type  4   force =     0.02313393   -0.06498205   -0.03792792
     atom    7 type  3   force =     0.02562624   -0.03237344    0.00767114
     atom    8 type  4   force =    -0.02828685   -0.01740166   -0.07153721
     atom    9 type  3   force =    -0.00798927   -0.02395134   -0.04721638
     atom   10 type  4   force =    -0.05297761    0.04634311   -0.03645367
     atom   11 type  3   force =     0.13743559   -0.38504650   -0.23429836
[...]
     atom   19 type  3   force =    -0.00042026   -0.00116135   -0.00442659
     atom   20 type  3   force =    -0.00116955    0.00125374    0.00003306
     atom   21 type  3   force =    -0.00031198    0.00043412    0.00098521
     atom   22 type  4   force =     0.00000000    0.00000000    0.00000000
     atom   23 type  3   force =     0.00132021   -0.00202186    0.00029225
     atom   24 type  4   force =     0.00000000    0.00000000    0.00000000
     atom   25 type  3   force =     0.00217847   -0.00514567   -0.00198387
     atom   26 type  3   force =     0.00082483   -0.00020177   -0.00162322
     atom   27 type  4   force =     0.00000000    0.00000000    0.00000000
     atom   28 type  3   force =    -0.00117182    0.00183141   -0.00079709
     atom   29 type  4   force =     0.00000000    0.00000000    0.00000000
     atom   30 type  3   force =     0.00273663   -0.00130872    0.00072213
     atom   31 type  4   force =     0.00000000    0.00000000    0.00000000
     atom   32 type  3   force =    -0.00110649    0.00178031    0.00093593
     atom   33 type  3   force =     0.00079933    0.00065178    0.00141305
     atom   34 type  4   force =     0.00000000    0.00000000    0.00000000
     atom   35 type  3   force =     0.00935634   -0.00215523    0.00536000
     atom   36 type  3   force =     0.00151740   -0.00111254    0.00003261
     atom   37 type  4   force =     0.00000000    0.00000000    0.00000000
     atom   38 type  3   force =     0.00062587   -0.00187379   -0.00152119
     atom   39 type  4   force =     0.00000000    0.00000000    0.00000000
     atom   40 type  3   force =    -0.00102790    0.00102700    0.00018056
     atom   41 type  4   force =     0.00000000    0.00000000    0.00000000
     atom   42 type  3   force =     0.00668096   -0.00657341    0.00352844
     atom   43 type  4   force =     0.00000000    0.00000000    0.00000000
     atom   44 type  4   force =     0.00000000    0.00000000    0.00000000
     atom   45 type  4   force =     0.00000000    0.00000000    0.00000000
     atom   46 type  3   force =    -0.00642487    0.00724973    0.00248933
     atom   47 type  4   force =     0.00000000    0.00000000    0.00000000
     atom   48 type  4   force =     0.00000000    0.00000000    0.00000000
     atom   49 type  4   force =     0.00000000    0.00000000    0.00000000
     The Hubbard contrib.    to forces
     atom    1 type  1   force =     0.00000000    0.00000000    0.00000000
     atom    2 type  1   force =     0.00000000    0.00000000    0.00000000
     atom    3 type  1   force =     0.00000000    0.00000000    0.00000000
     atom    4 type  2   force =     0.00000000    0.00000000    0.00000000
     atom    5 type  3   force =     0.00000000    0.00000000    0.00000000
     atom    6 type  4   force =     0.00000000    0.00000000    0.00000000
     atom    7 type  3   force =     0.00000000    0.00000000    0.00000000
     atom    8 type  4   force =     0.00000000    0.00000000    0.00000000
     atom    9 type  3   force =     0.00000000    0.00000000    0.00000000
     atom   10 type  4   force =     0.00000000    0.00000000    0.00000000
     atom   11 type  3   force =     0.00000000    0.00000000    0.00000000
     atom   12 type  3   force =     0.00000000    0.00000000    0.00000000
     atom   13 type  4   force =     0.00000000    0.00000000    0.00000000
     atom   14 type  3   force =     0.00000000    0.00000000    0.00000000
     atom   15 type  3   force =     0.00000000    0.00000000    0.00000000
     atom   16 type  4   force =     0.00000000    0.00000000    0.00000000
     atom   17 type  3   force =     0.00000000    0.00000000    0.00000000
     atom   18 type  4   force =     0.00000000    0.00000000    0.00000000
     atom   19 type  3   force =     0.00000000    0.00000000    0.00000000
     atom   20 type  3   force =     0.00000000    0.00000000    0.00000000
     atom   21 type  3   force =     0.00000000    0.00000000    0.00000000
     atom   22 type  4   force =     0.00000000    0.00000000    0.00000000
     atom   23 type  3   force =     0.00000000    0.00000000    0.00000000
     atom   24 type  4   force =     0.00000000    0.00000000    0.00000000
     atom   25 type  3   force =     0.00000000    0.00000000    0.00000000
     atom   26 type  3   force =     0.00000000    0.00000000    0.00000000
     atom   27 type  4   force =     0.00000000    0.00000000    0.00000000
     atom   28 type  3   force =     0.00000000    0.00000000    0.00000000
     atom   29 type  4   force =     0.00000000    0.00000000    0.00000000
     atom   30 type  3   force =     0.00000000    0.00000000    0.00000000
     atom   31 type  4   force =     0.00000000    0.00000000    0.00000000
     atom   32 type  3   force =     0.00000000    0.00000000    0.00000000
     atom   33 type  3   force =     0.00000000    0.00000000    0.00000000
     atom   34 type  4   force =     0.00000000    0.00000000    0.00000000
     atom   35 type  3   force =     0.00000000    0.00000000    0.00000000
     atom   36 type  3   force =     0.00000000    0.00000000    0.00000000
     atom   37 type  4   force =     0.00000000    0.00000000    0.00000000
     atom   38 type  3   force =     0.00000000    0.00000000    0.00000000
     atom   39 type  4   force =     0.00000000    0.00000000    0.00000000
     atom   40 type  3   force =     0.00000000    0.00000000    0.00000000
     atom   41 type  4   force =     0.00000000    0.00000000    0.00000000
     atom   42 type  3   force =     0.00000000    0.00000000    0.00000000
     atom   43 type  4   force =     0.00000000    0.00000000    0.00000000
     atom   44 type  4   force =     0.00000000    0.00000000    0.00000000
     atom   45 type  4   force =     0.00000000    0.00000000    0.00000000
     atom   46 type  3   force =     0.00000000    0.00000000    0.00000000
     atom   47 type  4   force =     0.00000000    0.00000000    0.00000000
     atom   48 type  4   force =     0.00000000    0.00000000    0.00000000
     atom   49 type  4   force =     0.00000000    0.00000000    0.00000000
     The SCF correction term to forces
     atom    1 type  1   force =    -0.00000054   -0.00000140    0.00000142
     atom    2 type  1   force =    -0.00000610    0.00000700   -0.00000134
     atom    3 type  1   force =    -0.00001380    0.00000614   -0.00000209
     atom    4 type  2   force =     0.00000948   -0.00001198   -0.00000199
     atom    5 type  3   force =    -0.00000264    0.00000382    0.00000146
     atom    6 type  4   force =    -0.00000061    0.00000079    0.00000026
     atom    7 type  3   force =    -0.00000017    0.00000145    0.00000232
     atom    8 type  4   force =    -0.00000006    0.00000046    0.00000060
     atom    9 type  3   force =    -0.00000182    0.00000430    0.00000293
     atom   10 type  4   force =    -0.00000045    0.00000134    0.00000098
     atom   11 type  3   force =    -0.00000393    0.00000590    0.00000141
     atom   12 type  3   force =    -0.00000250    0.00000282    0.00000055
     atom   13 type  4   force =    -0.00000048    0.00000072    0.00000038
     atom   14 type  3   force =    -0.00000381    0.00000333   -0.00000086
     atom   15 type  3   force =    -0.00000130    0.00000173    0.00000150
     atom   16 type  4   force =    -0.00000019    0.00000068    0.00000107
     atom   17 type  3   force =     0.00000101   -0.00000140    0.00000046
     atom   18 type  4   force =    -0.00000004    0.00000014    0.00000056
     atom   19 type  3   force =    -0.00000004   -0.00000054    0.00000112
     atom   20 type  3   force =     0.00000001   -0.00000072    0.00000065
     atom   21 type  3   force =    -0.00000205    0.00000198   -0.00000075
     atom   22 type  4   force =    -0.00000043    0.00000044    0.00000017
     atom   23 type  3   force =     0.00000024   -0.00000016    0.00000024
     atom   24 type  4   force =     0.00000035   -0.00000028   -0.00000022
     atom   25 type  3   force =    -0.00000016    0.00000019   -0.00000028
     atom   26 type  3   force =    -0.00000093    0.00000084    0.00000083
     atom   27 type  4   force =     0.00000004   -0.00000022    0.00000052
     atom   28 type  3   force =     0.00000133   -0.00000214    0.00000269
     atom   29 type  4   force =     0.00000004   -0.00000009    0.00000024
     atom   30 type  3   force =     0.00000280   -0.00000454   -0.00000174
     atom   31 type  4   force =     0.00000011   -0.00000154   -0.00000121
     atom   32 type  3   force =     0.00000116   -0.00000120    0.00000021
     atom   33 type  3   force =    -0.00000449    0.00000038   -0.00000247
     atom   34 type  4   force =    -0.00000148   -0.00000078   -0.00000176
     atom   35 type  3   force =    -0.00000876    0.00000579   -0.00000013
     atom   36 type  3   force =    -0.00000974    0.00000596   -0.00000100
     atom   37 type  4   force =    -0.00000126    0.00000072   -0.00000010
     atom   38 type  3   force =    -0.00000378    0.00000480    0.00000257
     atom   39 type  4   force =    -0.00000004    0.00000213    0.00000228
     atom   40 type  3   force =     0.00000198   -0.00000225   -0.00000020
     atom   41 type  4   force =     0.00000093   -0.00000017    0.00000076
     atom   42 type  3   force =    -0.00000169    0.00000236    0.00000024
     atom   43 type  4   force =     0.00000007   -0.00000109   -0.00000115
     atom   44 type  4   force =    -0.00000084   -0.00000035    0.00000138
     atom   45 type  4   force =     0.00000119    0.00000104    0.00000026
     atom   46 type  3   force =    -0.00000478    0.00000191   -0.00000091
     atom   47 type  4   force =    -0.00000013    0.00000033    0.00000040
     atom   48 type  4   force =    -0.00000128   -0.00000006   -0.00000015
     atom   49 type  4   force =    -0.00000081    0.00000052   -0.00000074

     DFT-D3 dispersion contribution to forces:
     atom    1 type  1   force =     0.00006617    0.00013989    0.00056398
     atom    2 type  1   force =    -0.00008973    0.00035111    0.00027649
     atom    3 type  1   force =     0.00036668   -0.00002779    0.00026604
     atom    4 type  2   force =    -0.00012643   -0.00004136   -0.00018318
     atom    5 type  3   force =    -0.00024608    0.00006045   -0.00029326
     atom    6 type  4   force =    -0.00012077   -0.00016467   -0.00035140
     atom    7 type  3   force =    -0.00019948   -0.00006753   -0.00042308
     atom    8 type  4   force =    -0.00013077   -0.00008126   -0.00033040
     atom    9 type  3   force =    -0.00008780   -0.00008467   -0.00026187
     atom   10 type  4   force =    -0.00021414    0.00009147   -0.00027032
     atom   11 type  3   force =    -0.00010089    0.00014711    0.00000360
     atom   12 type  3   force =     0.00006313    0.00004016    0.00018071
     atom   13 type  4   force =     0.00007820    0.00014962    0.00033018
     atom   14 type  3   force =    -0.00015945    0.00016004   -0.00003335
     atom   15 type  3   force =     0.00003444    0.00013397    0.00037742
     atom   16 type  4   force =     0.00007172    0.00006207    0.00026929
     atom   17 type  3   force =     0.00001111   -0.00000322    0.00016652
     atom   18 type  4   force =    -0.00007455   -0.00005741   -0.00017373
     atom   19 type  3   force =    -0.00001923    0.00014984    0.00038884
     atom   20 type  3   force =     0.00014550   -0.00014622    0.00009714
     atom   21 type  3   force =     0.00002212   -0.00008419    0.00028903
     atom   22 type  4   force =     0.00005072   -0.00006873    0.00038363
     atom   23 type  3   force =    -0.00009644   -0.00007018    0.00023249
     atom   24 type  4   force =    -0.00001209   -0.00011190    0.00040189
     atom   25 type  3   force =     0.00008808   -0.00001606    0.00006851
     atom   26 type  3   force =    -0.00007923   -0.00001294   -0.00037548
     atom   27 type  4   force =    -0.00007752    0.00005830   -0.00039699
     atom   28 type  3   force =     0.00015812   -0.00017848   -0.00030025
     atom   29 type  4   force =     0.00002528    0.00002201   -0.00041240
     atom   30 type  3   force =    -0.00006656    0.00024979    0.00014471
     atom   31 type  4   force =     0.00018939    0.00007364    0.00012148
     atom   32 type  3   force =     0.00017124   -0.00019892   -0.00012594
     atom   33 type  3   force =     0.00003972    0.00012847    0.00013437
     atom   34 type  4   force =     0.00018758    0.00015156    0.00028314
     atom   35 type  3   force =     0.00013101   -0.00008508    0.00001808
     atom   36 type  3   force =    -0.00011754   -0.00013982   -0.00022890
     atom   37 type  4   force =     0.00007228   -0.00027394   -0.00021543
     atom   38 type  3   force =    -0.00012511   -0.00024676   -0.00034557
     atom   39 type  4   force =    -0.00010776   -0.00019947   -0.00028494
     atom   40 type  3   force =    -0.00003521   -0.00022583   -0.00025952
     atom   41 type  4   force =    -0.00020977   -0.00015660   -0.00031317
     atom   42 type  3   force =    -0.00021385    0.00038636    0.00010283
     atom   43 type  4   force =    -0.00010697    0.00024165    0.00010993
     atom   44 type  4   force =    -0.00009599    0.00033413   -0.00002317
     atom   45 type  4   force =    -0.00026358    0.00021670    0.00007155
     atom   46 type  3   force =     0.00039558   -0.00018733    0.00012123
     atom   47 type  4   force =     0.00024963   -0.00007970    0.00011317
     atom   48 type  4   force =     0.00022443   -0.00023968    0.00011153
     atom   49 type  4   force =     0.00033483   -0.00009859   -0.00002544

     Total force =     0.010373     Total SCF correction =     0.000034
     Energy error            =      1.5E-04 Ry
     Gradient error          =      2.6E-03 Ry/Bohr

     bfgs converged in   6 scf cycles and   5 bfgs steps
     (criteria: energy <  5.0E-04 Ry, force <  5.0E-03 Ry/Bohr)

     End of BFGS Geometry Optimization

     Final energy             =    -440.4735593723 Ry

     File ./outdir/4amp15pbeiso.bfgs deleted, as requested
Begin final coordinates

ATOMIC_POSITIONS (angstrom)
O            16.3861873854       12.9877003145       12.1018417563
O            20.8151762986        7.5247868048       13.5884607314
O             8.3918524163       20.5092981094       14.4647709055
N            13.4655756390       17.5473321424       15.4670850202
C            19.5837476073       10.9265826105       15.6482358170
H            19.2569752778       11.8259959002       16.1671379206
C            20.5087265842       10.0824895317       16.2418074129
H            20.9017261736       10.3205038359       17.2305612894
C            20.9571854756        8.9232949916       15.5946057309
H            21.6840167754        8.2796765052       16.0852661330
C            20.4588149421        8.6212624936       14.3220189381
C            19.5309827927        9.4702274779       13.7147141526
H            19.1606409008        9.2145838065       12.7216941621
C            19.0794028206       10.6232701876       14.3647180886
C            18.1100217934       11.4505879314       13.6744184393
H            17.8633086835       11.1621900127       12.6470264859
C            17.4729059170       12.5331081189       14.1598680822
H            17.6560319972       12.8818915486       15.1763907200
C            16.5287626879       13.2717731008       13.2989253733
C            15.7513293836       14.3864332168       13.9022571206
C            15.0825989424       15.2614561765       13.0301866879
H            15.1865848706       15.0898219173       11.9596861150
C            14.3255042882       16.3111967969       13.5198308894
H            13.8459140219       17.0087074630       12.8330798876
C            14.2054663911       16.5064757259       14.9114818153
C            14.8845591629       15.6447917251       15.7867465039
H            14.7901492335       15.8170269677       16.8581305817
C            15.6398149390       14.5952656009       15.2877918662
H            16.1336905779       13.9272265962       15.9915160465
C            12.3373692567       17.8647380110       14.9397614698
H            11.9097344075       17.2873094957       14.0983527442
C            11.5371063082       18.9765850922       15.4226404415
C            10.3405300616       19.2579147386       14.7628330987
H            10.0174586714       18.6600544536       13.9098299057
C             9.5360547819       20.3181415718       15.1868231255
C             9.9265135097       21.0952272378       16.2835047667
H             9.3135331085       21.9235782889       16.6322535301
C            11.1294888040       20.8008889602       16.9411095439
H            11.4264578566       21.4102210988       17.7948431336
C            11.9386692735       19.7560893032       16.5247785818
H            12.8739694474       19.5172231918       17.0272218337
C            21.7657671728        6.6394984580       14.1734572539
H            21.9094904617        5.8414120130       13.4403746987
H            21.3859916325        6.2157346003       15.1171128452
H            22.7229088637        7.1522073050       14.3611572495
C             7.5303671803       21.5609394792       14.8912218130
H             6.6811788378       21.5381436890       14.2031456570
H             8.0347159306       22.5389370588       14.8308040083
H             7.1813214542       21.3920213425       15.9226346262
End final coordinates



     Writing all to output data dir ./outdir/4amp15pbeiso.save/

     init_run     :     18.77s CPU     19.54s WALL (       1 calls)
     electrons    :   4223.75s CPU   6195.72s WALL (       6 calls)
     update_pot   :     31.74s CPU     32.41s WALL (       5 calls)
     forces       :     36.30s CPU     38.57s WALL (       6 calls)
     force_dftd3  :      0.10s CPU      0.11s WALL (       6 calls)

     Called by init_run:
     wfcinit      :      0.94s CPU      1.10s WALL (       1 calls)
     potinit      :      3.56s CPU      3.73s WALL (       1 calls)
     hinit0       :      3.10s CPU      3.18s WALL (       1 calls)

     Called by electrons:
     c_bands      :    209.21s CPU    234.61s WALL (     122 calls)
     sum_band     :    113.66s CPU    136.33s WALL (     122 calls)
     v_of_rho     :     54.22s CPU     59.46s WALL (     126 calls)
     newd         :     51.67s CPU     65.04s WALL (     126 calls)
     mix_rho      :   3787.32s CPU   5687.65s WALL (     122 calls)
     energy_dftd3 :      0.01s CPU      0.01s WALL (       6 calls)

     Called by c_bands:
     init_us_2    :      2.48s CPU      2.57s WALL (     245 calls)
     init_us_2:cp :      2.48s CPU      2.57s WALL (     245 calls)
     regterg      :    206.33s CPU    231.41s WALL (     122 calls)

     Called by *egterg:
     rdiaghg      :      4.12s CPU      4.15s WALL (     780 calls)
     h_psi        :    160.69s CPU    185.61s WALL (     788 calls)
     s_psi        :      9.72s CPU      9.76s WALL (     788 calls)
     g_psi        :      0.25s CPU      0.26s WALL (     665 calls)

     Called by h_psi:
     h_psi:calbec :     12.04s CPU     12.25s WALL (     788 calls)
     vloc_psi     :    137.91s CPU    162.53s WALL (     788 calls)
     add_vuspsi   :      9.56s CPU      9.64s WALL (     788 calls)

     General routines
     calbec       :     16.07s CPU     16.31s WALL (     934 calls)
     fft          :     55.62s CPU     64.77s WALL (    1441 calls)
     ffts         :   2177.37s CPU   4048.00s WALL (  290288 calls)
     fftw         :    118.32s CPU    144.36s WALL (   29896 calls)
     interpolate  :      7.37s CPU      8.81s WALL (     126 calls)

     Parallel routines

     PWSCF        :      1h11m CPU      1h44m WALL


   This run was terminated on:  16:55:34  27Feb2024

=------------------------------------------------------------------------------=
   JOB DONE.
=------------------------------------------------------------------------------=
