
     Program PWSCF v.6.7MaX starts on 14Dec2023 at 17:43:39

     This program is part of the open-source Quantum ESPRESSO suite
     for quantum simulation of materials; please cite
         "P. Giannozzi et al., J. Phys.:Condens. Matter 21 395502 (2009);
         "P. Giannozzi et al., J. Phys.:Condens. Matter 29 465901 (2017);
          URL http://www.quantum-espresso.org",
     in publications or presentations arising from this work. More details at
     http://www.quantum-espresso.org/quote

     Parallel version (MPI), running on   150 processors

     MPI processes distributed on     1 nodes
     R & G space division:  proc/nbgrp/npool/nimage =     150
     Waiting for input...
     Reading input from standard input

     Current dimensions of program PWSCF are:
     Max number of different atomic species (ntypx) = 10
     Max number of k-points (npk) =  40000
     Max angular momentum in pseudopotentials (lmaxx) =  3

     IMPORTANT: XC functional enforced from input :
     Exchange-correlation= PBE
                           (   1   4   3   4   0   0   0)
     Any further DFT definition will be discarded
     Please, verify this is what you really want


     gamma-point specific algorithms are used

     Subspace diagonalization in iterative solution of the eigenvalue problem:
     one sub-group per band group will be used
     scalapack distributed-memory algorithm (size of sub-group: 12* 12 procs)

     Message from routine setup:
     using ibrav=0 with symmetry is DISCOURAGED, use correct ibrav instead

     Parallelization info
     --------------------
     sticks:   dense  smooth     PW     G-vecs:    dense   smooth      PW
     Min          86      34      7                15224     3844     468
     Max          88      36     10                15264     3878     510
     Sum       13013    5209   1291              2286423   578361   72213



     bravais-lattice index     =            0
     lattice parameter (alat)  =      30.7969  a.u.
     unit-cell volume          =   12112.4072 (a.u.)^3
     number of atoms/cell      =          196
     number of atomic types    =            4
     number of electrons       =       560.00
     number of Kohn-Sham states=          280
     kinetic-energy cutoff     =      50.0000  Ry
     charge density cutoff     =     500.0000  Ry
     scf convergence threshold =      1.0E-10
     mixing beta               =       0.7000
     number of iterations used =            8  local-TF  mixing
     energy convergence thresh.=      1.0E-04
     force convergence thresh. =      1.0E-03
     Exchange-correlation= PBE
                           (   1   4   3   4   0   0   0)
     nstep                     =           50


     celldm(1)=  30.796867  celldm(2)=   0.000000  celldm(3)=   0.000000
     celldm(4)=   0.000000  celldm(5)=   0.000000  celldm(6)=   0.000000

     crystal axes: (cart. coord. in units of alat)
               a(1) = (   1.000000   0.000000   0.000000 )
               a(2) = (   0.000000   0.345487   0.000000 )
               a(3) = (  -0.937552   0.000000   1.200271 )

     reciprocal axes: (cart. coord. in units 2 pi/alat)
               b(1) = (  1.000000 -0.000000  0.781117 )
               b(2) = (  0.000000  2.894466 -0.000000 )
               b(3) = (  0.000000  0.000000  0.833145 )


     PseudoPot. # 1 for O  read from file:
     /usr/share/espresso/pseudo/O.pbe-n-rrkjus_psl.1.0.0.UPF
     MD5 check sum: 91400c9766925bcf19f520983a725ff0
     Pseudo is Ultrasoft + core correction, Zval =  6.0
     Generated using &quot;atomic&quot; code by A. Dal Corso  v.6.3MaX
     Using radial grid of 1095 points,  4 beta functions with:
                l(1) =   0
                l(2) =   0
                l(3) =   1
                l(4) =   1
     Q(r) pseudized with 0 coefficients


     PseudoPot. # 2 for N  read from file:
     /usr/share/espresso/pseudo/N.pbe-n-rrkjus_psl.1.0.0.UPF
     MD5 check sum: ada94e3ed05223de5319d0572dc76806
     Pseudo is Ultrasoft + core correction, Zval =  5.0
     Generated using &quot;atomic&quot; code by A. Dal Corso  v.6.3MaX
     Using radial grid of 1085 points,  4 beta functions with:
                l(1) =   0
                l(2) =   0
                l(3) =   1
                l(4) =   1
     Q(r) pseudized with 0 coefficients


     PseudoPot. # 3 for C  read from file:
     /usr/share/espresso/pseudo/C.pbe-n-rrkjus_psl.1.0.0.UPF
     MD5 check sum: 1fdd950c42eb37d8afe3dd2f8d12311e
     Pseudo is Ultrasoft + core correction, Zval =  4.0
     Generated using &quot;atomic&quot; code by A. Dal Corso  v.6.3MaX
     Using radial grid of 1073 points,  4 beta functions with:
                l(1) =   0
                l(2) =   0
                l(3) =   1
                l(4) =   1
     Q(r) pseudized with 0 coefficients


     PseudoPot. # 4 for H  read from file:
     /usr/share/espresso/pseudo/H.pbe-rrkjus_psl.1.0.0.UPF
     MD5 check sum: 3f4114867bd07edc7f1424d066fc1888
     Pseudo is Ultrasoft, Zval =  1.0
     Generated using &quot;atomic&quot; code by A. Dal Corso  v.6.3MaX
     Using radial grid of  929 points,  2 beta functions with:
                l(1) =   0
                l(2) =   0
     Q(r) pseudized with 0 coefficients


     atomic species   valence    mass     pseudopotential
        O              6.00    16.00000     O ( 1.00)
        N              5.00    14.00000     N ( 1.00)
        C              4.00    12.00000     C ( 1.00)
        H              1.00     1.00000     H ( 1.00)

      4 Sym. Ops., with inversion, found ( 2 have fractional translation)



   Cartesian axes

     site n.     atom                  positions (alat units)
         1           O   tau(   1) = (  -0.2800852   0.2365203   0.5805470  )
         2           O   tau(   2) = (   0.0031429   0.2647121   0.6679628  )
         3           O   tau(   3) = (   0.2341418   0.3276943   0.7379026  )
         4           N   tau(   4) = (  -0.4499559   0.1674920   0.7842690  )
         5           C   tau(   5) = (  -0.1110941   0.0945252   0.8006407  )
         6           H   tau(   6) = (  -0.1381922   0.1348750   0.8305647  )
         7           C   tau(   7) = (  -0.0585801   0.0439114   0.8383892  )
         8           H   tau(   8) = (  -0.0493887   0.0499135   0.8943855  )
         9           C   tau(   9) = (  -0.0184814   0.3293872   0.7966558  )
        10           H   tau(  10) = (   0.0179337   0.2946250   0.8235863  )
        11           C   tau(  11) = (  -0.0322373   0.3211992   0.7158176  )
        12           C   tau(  12) = (  -0.0854918   0.0268443   0.6770968  )
        13           H   tau(  13) = (  -0.0949550   0.0203381   0.6212002  )
        14           C   tau(  14) = (  -0.1251080   0.0870972   0.7184942  )
        15           C   tau(  15) = (  -0.1793886   0.1400949   0.6742762  )
        16           H   tau(  16) = (  -0.1880635   0.1273126   0.6193470  )
        17           C   tau(  17) = (  -0.2175367   0.2036300   0.7019904  )
        18           H   tau(  18) = (  -0.2098992   0.2186514   0.7565092  )
        19           C   tau(  19) = (  -0.2715626   0.2521363   0.6517111  )
        20           C   tau(  20) = (  -0.3164554   0.3199900   0.6879833  )
        21           C   tau(  21) = (  -0.3672215   0.0196582   0.6392403  )
        22           H   tau(  22) = (  -0.3715580   0.0065947   0.5838562  )
        23           C   tau(  23) = (  -0.4114353   0.0828823   0.6693431  )
        24           H   tau(  24) = (  -0.4450277   0.1131701   0.6345844  )
        25           C   tau(  25) = (  -0.4069638   0.1024023   0.7500973  )
        26           C   tau(  26) = (  -0.3551784   0.0592510   0.7984442  )
        27           H   tau(  27) = (  -0.3494910   0.0735970   0.8533818  )
        28           C   tau(  28) = (  -0.3115364   0.3413065   0.7683054  )
        29           H   tau(  29) = (  -0.2775065   0.3116243   0.8031697  )
        30           C   tau(  30) = (  -0.5216017   0.1806551   0.7603236  )
        31           H   tau(  31) = (  -0.5445156   0.1447518   0.7223650  )
        32           C   tau(  32) = (  -0.5701342   0.2484742   0.7885300  )
        33           C   tau(  33) = (   0.3547986   0.2585969   0.7545623  )
        34           H   tau(  34) = (   0.3357555   0.2208884   0.7161788  )
        35           C   tau(  35) = (   0.3070882   0.3233066   0.7760832  )
        36           C   tau(  36) = (   0.3336764   0.0316466   0.8329400  )
        37           H   tau(  37) = (   0.3009269   0.0757404   0.8484991  )
        38           C   tau(  38) = (  -0.5912813   0.0206947   0.8671957  )
        39           H   tau(  39) = (  -0.5729004   0.0575554   0.9066930  )
        40           C   tau(  40) = (  -0.5428585   0.3029920   0.8451468  )
        41           H   tau(  41) = (  -0.4911264   0.2967891   0.8685196  )
        42           C   tau(  42) = (   0.0583258   0.2095724   0.7035748  )
        43           H   tau(  43) = (   0.0793245   0.1732734   0.6621691  )
        44           H   tau(  44) = (   0.0307581   0.1781496   0.7450586  )
        45           H   tau(  45) = (   0.1029453   0.2393782   0.7279379  )
        46           C   tau(  46) = (   0.1897708   0.0548288   0.7465325  )
        47           H   tau(  47) = (   0.1420491   0.0529010   0.7120379  )
        48           H   tau(  48) = (   0.2235316   0.1004576   0.7308078  )
        49           H   tau(  49) = (   0.1731438   0.0611301   0.8026956  )
        50           O   tau(  50) = (   0.8113092   0.0637769   0.0195884  )
        51           O   tau(  51) = (  -0.4094709   0.0919686   1.1324436  )
        52           O   tau(  52) = (  -0.6404698   0.1549509   1.0625038  )
        53           N   tau(  53) = (   0.0436278   0.3402355   1.0161374  )
        54           C   tau(  54) = (  -0.2952339   0.2672687   0.9997657  )
        55           H   tau(  55) = (  -0.2681358   0.3076184   0.9698417  )
        56           C   tau(  56) = (  -0.3477479   0.2166548   0.9620171  )
        57           H   tau(  57) = (  -0.3569393   0.2226570   0.9060209  )
        58           C   tau(  58) = (  -0.3878466   0.1566438   1.0037506  )
        59           H   tau(  59) = (  -0.4242618   0.1218816   0.9768201  )
        60           C   tau(  60) = (  -0.3740908   0.1484557   1.0845888  )
        61           C   tau(  61) = (  -0.3208362   0.1995878   1.1233095  )
        62           H   tau(  62) = (  -0.3113730   0.1930816   1.1792062  )
        63           C   tau(  63) = (  -0.2812200   0.2598407   1.0819122  )
        64           C   tau(  64) = (  -0.2269394   0.3128384   1.1261302  )
        65           H   tau(  65) = (  -0.2182646   0.3000561   1.1810594  )
        66           C   tau(  66) = (  -0.1887913   0.0308865   1.0984159  )
        67           H   tau(  67) = (  -0.1964289   0.0459080   1.0438972  )
        68           C   tau(  68) = (  -0.1347654   0.0793929   1.1486953  )
        69           C   tau(  69) = (  -0.0898726   0.1472465   1.1124231  )
        70           C   tau(  70) = (  -0.0391066   0.1924017   1.1611661  )
        71           H   tau(  71) = (   0.9027820   0.1793381   0.0162793  )
        72           C   tau(  72) = (   0.0051072   0.2556258   1.1310633  )
        73           H   tau(  73) = (   0.0386997   0.2859136   1.1658219  )
        74           C   tau(  74) = (   0.0006357   0.2751458   1.0503091  )
        75           C   tau(  75) = (  -0.0511497   0.2319945   1.0019622  )
        76           H   tau(  76) = (  -0.0568370   0.2463405   0.9470246  )
        77           C   tau(  77) = (  -0.0947916   0.1685631   1.0321010  )
        78           H   tau(  78) = (  -0.1288215   0.1388809   0.9972367  )
        79           C   tau(  79) = (   0.1152737   0.0079116   1.0400828  )
        80           H   tau(  80) = (   0.1381876   0.3174952   1.0780413  )
        81           C   tau(  81) = (   0.1638062   0.0757307   1.0118764  )
        82           C   tau(  82) = (  -0.7611266   0.0858535   1.0458441  )
        83           H   tau(  83) = (  -0.7420835   0.0481450   1.0842275  )
        84           C   tau(  84) = (  -0.7134163   0.1505632   1.0243232  )
        85           C   tau(  85) = (  -0.7400044   0.2043900   0.9674664  )
        86           H   tau(  86) = (  -0.7072549   0.2484839   0.9519073  )
        87           C   tau(  87) = (   0.1849533   0.1934381   0.9332106  )
        88           H   tau(  88) = (   0.1665723   0.2302988   0.8937133  )
        89           C   tau(  89) = (   0.1365305   0.1302486   0.9552596  )
        90           H   tau(  90) = (   0.0847984   0.1240457   0.9318867  )
        91           C   tau(  91) = (  -0.4646538   0.0368289   1.0968316  )
        92           H   tau(  92) = (  -0.4856525   0.0005300   1.1382373  )
        93           H   tau(  93) = (  -0.4370861   0.0054062   1.0553478  )
        94           H   tau(  94) = (  -0.5092733   0.0666347   1.0724685  )
        95           C   tau(  95) = (  -0.5960988   0.2275722   1.0538739  )
        96           H   tau(  96) = (  -0.5483771   0.2256444   1.0883685  )
        97           H   tau(  97) = (  -0.6298597   0.2732010   1.0695986  )
        98           H   tau(  98) = (  -0.5794719   0.2338736   0.9977108  )
        99           O   tau(  99) = (   0.3425331   0.1089666   0.6197239  )
       100           O   tau( 100) = (   0.0593051   0.0807748   0.5323081  )
       101           O   tau( 101) = (  -0.1716938   0.0177926   0.4623684  )
       102           N   tau( 102) = (   0.5124038   0.1779949   0.4160019  )
       103           C   tau( 103) = (   0.1735421   0.2509617   0.3996302  )
       104           H   tau( 104) = (   0.2006402   0.2106119   0.3697062  )
       105           C   tau( 105) = (   0.1210281   0.3015755   0.3618817  )
       106           H   tau( 106) = (   0.1118367   0.2955734   0.3058854  )
       107           C   tau( 107) = (   0.0809294   0.0160997   0.4036151  )
       108           H   tau( 108) = (   0.0445142   0.0508619   0.3766846  )
       109           C   tau( 109) = (   0.0946853   0.0242877   0.4844533  )
       110           C   tau( 110) = (   0.1479398   0.3186426   0.5231741  )
       111           H   tau( 111) = (   0.1574030   0.3251488   0.5790707  )
       112           C   tau( 112) = (   0.1875560   0.2583897   0.4817767  )
       113           C   tau( 113) = (   0.2418366   0.2053920   0.5259947  )
       114           H   tau( 114) = (   0.2505115   0.2181743   0.5809239  )
       115           C   tau( 115) = (   0.2799847   0.1418569   0.4982805  )
       116           H   tau( 116) = (   0.2723471   0.1268355   0.4437618  )
       117           C   tau( 117) = (   0.3340106   0.0933506   0.5485598  )
       118           C   tau( 118) = (   0.3789034   0.0254969   0.5122876  )
       119           C   tau( 119) = (   0.4296694   0.3258287   0.5610306  )
       120           H   tau( 120) = (   0.4340060   0.3388922   0.6164147  )
       121           C   tau( 121) = (   0.4738832   0.2626046   0.5309278  )
       122           H   tau( 122) = (   0.5074757   0.2323168   0.5656865  )
       123           C   tau( 123) = (   0.4694117   0.2430846   0.4501736  )
       124           C   tau( 124) = (   0.4176263   0.2862359   0.4018267  )
       125           H   tau( 125) = (   0.4119390   0.2718899   0.3468891  )
       126           C   tau( 126) = (   0.3739844   0.0041804   0.4319655  )
       127           H   tau( 127) = (   0.3399545   0.0338626   0.3971012  )
       128           C   tau( 128) = (   0.5840497   0.1648318   0.4399473  )
       129           H   tau( 129) = (   0.6069636   0.2007351   0.4779059  )
       130           C   tau( 130) = (   0.6325822   0.0970127   0.4117409  )
       131           C   tau( 131) = (  -0.2923506   0.0868900   0.4457086  )
       132           H   tau( 132) = (  -0.2733075   0.1245985   0.4840921  )
       133           C   tau( 133) = (  -0.2446403   0.0221803   0.4241877  )
       134           C   tau( 134) = (  -0.2712284   0.3138403   0.3673309  )
       135           H   tau( 135) = (  -0.2384789   0.2697465   0.3517718  )
       136           C   tau( 136) = (   0.6537293   0.3247922   0.3330752  )
       137           H   tau( 137) = (   0.6353483   0.2879315   0.2935779  )
       138           C   tau( 138) = (   0.6053065   0.0424949   0.3551242  )
       139           H   tau( 139) = (   0.5535744   0.0486978   0.3317513  )
       140           C   tau( 140) = (   0.0041222   0.1359145   0.4966961  )
       141           H   tau( 141) = (  -0.0168765   0.1722135   0.5381019  )
       142           H   tau( 142) = (   0.0316899   0.1673373   0.4552123  )
       143           H   tau( 143) = (  -0.0404973   0.1061087   0.4723330  )
       144           C   tau( 144) = (  -0.1273228   0.2906581   0.4537384  )
       145           H   tau( 145) = (  -0.0796011   0.2925859   0.4882330  )
       146           H   tau( 146) = (  -0.1610837   0.2450293   0.4694632  )
       147           H   tau( 147) = (  -0.1106959   0.2843568   0.3975753  )
       148           O   tau( 148) = (  -0.7488612   0.2817100   1.1806825  )
       149           O   tau( 149) = (   0.4719189   0.2535183   0.0678273  )
       150           O   tau( 150) = (   0.7029178   0.1905360   0.1377671  )
       151           N   tau( 151) = (   0.0188201   0.0052514   0.1841336  )
       152           C   tau( 152) = (   0.3576819   0.0782182   0.2005053  )
       153           H   tau( 153) = (   0.3305838   0.0378685   0.2304292  )
       154           C   tau( 154) = (   0.4101959   0.1288321   0.2382538  )
       155           H   tau( 155) = (   0.4193873   0.1228299   0.2942500  )
       156           C   tau( 156) = (   0.4502946   0.1888431   0.1965204  )
       157           H   tau( 157) = (   0.4867098   0.2236053   0.2234508  )
       158           C   tau( 158) = (   0.4365387   0.1970312   0.1156821  )
       159           C   tau( 159) = (   0.3832842   0.1458991   0.0769614  )
       160           H   tau( 160) = (   0.3738210   0.1524053   0.0210648  )
       161           C   tau( 161) = (   0.3436680   0.0856462   0.1183587  )
       162           C   tau( 162) = (   0.2893874   0.0326485   0.0741407  )
       163           H   tau( 163) = (   0.2807125   0.0454308   0.0192115  )
       164           C   tau( 164) = (   0.2512393   0.3146004   0.1018550  )
       165           H   tau( 165) = (   0.2588768   0.2995789   0.1563737  )
       166           C   tau( 166) = (   0.1972134   0.2660940   0.0515756  )
       167           C   tau( 167) = (   0.1523206   0.1982404   0.0878478  )
       168           C   tau( 168) = (   0.1015546   0.1530852   0.0391048  )
       169           H   tau( 169) = (  -0.8403340   0.1661488   1.1839916  )
       170           C   tau( 170) = (   0.0573408   0.0898611   0.0692076  )
       171           H   tau( 171) = (   0.0237483   0.0595733   0.0344490  )
       172           C   tau( 172) = (   0.0618123   0.0703411   0.1499618  )
       173           C   tau( 173) = (   0.1135977   0.1134924   0.1983088  )
       174           H   tau( 174) = (   0.1192850   0.0991464   0.2532464  )
       175           C   tau( 175) = (   0.1572396   0.1769238   0.1681700  )
       176           H   tau( 176) = (   0.1912695   0.2066060   0.2030342  )
       177           C   tau( 177) = (  -0.0528257   0.3375752   0.1601882  )
       178           H   tau( 178) = (  -0.0757396   0.0279917   0.1222296  )
       179           C   tau( 179) = (  -0.1013582   0.2697562   0.1883945  )
       180           C   tau( 180) = (   0.8235746   0.2596334   0.1544269  )
       181           H   tau( 181) = (   0.8045315   0.2973419   0.1160434  )
       182           C   tau( 182) = (   0.7758643   0.1949237   0.1759477  )
       183           C   tau( 183) = (   0.8024524   0.1410968   0.2328045  )
       184           H   tau( 184) = (   0.7697029   0.0970030   0.2483637  )
       185           C   tau( 185) = (  -0.1225053   0.1520488   0.2670603  )
       186           H   tau( 186) = (  -0.1041243   0.1151881   0.3065576  )
       187           C   tau( 187) = (  -0.0740825   0.2152383   0.2450113  )
       188           H   tau( 188) = (  -0.0223504   0.2214412   0.2683842  )
       189           C   tau( 189) = (   0.5271018   0.3086580   0.1034393  )
       190           H   tau( 190) = (   0.5481005   0.3449569   0.0620336  )
       191           H   tau( 191) = (   0.4995341   0.3400807   0.1449231  )
       192           H   tau( 192) = (   0.5717213   0.2788522   0.1278024  )
       193           C   tau( 193) = (   0.6585468   0.1179147   0.1463970  )
       194           H   tau( 194) = (   0.6108251   0.1198425   0.1119025  )
       195           H   tau( 195) = (   0.6923076   0.0722859   0.1306723  )
       196           H   tau( 196) = (   0.6419198   0.1116133   0.2025601  )

     number of k points=     1
                       cart. coord. in units 2pi/alat
        k(    1) = (   0.0000000   0.0000000   0.0000000), wk =   2.0000000

     Dense  grid:  1143212 G-vectors     FFT dimensions: ( 225,  80, 360)

     Smooth grid:   289181 G-vectors     FFT dimensions: ( 144,  48, 216)

     Estimated max dynamical RAM per process >      52.98 MB

     Estimated total dynamical RAM >       7.76 GB

     Check: negative core charge=   -0.000003

     Initial potential from superposition of free atoms

     starting charge  559.99516, renormalised to  560.00000
     Starting wfcs are  532 randomized atomic wfcs

     total cpu time spent up to now is        2.0 secs

     Self-consistent Calculation

     iteration #  1     ecut=    50.00 Ry     beta= 0.70
     Davidson diagonalization with overlap
     ethr =  1.00E-02,  avg # of iterations =  3.0

     total cpu time spent up to now is        3.1 secs

     total energy              =   -1758.38087583 Ry
     estimated scf accuracy    <      27.53850748 Ry

     iteration #  2     ecut=    50.00 Ry     beta= 0.70
     Davidson diagonalization with overlap
     ethr =  4.92E-03,  avg # of iterations =  2.0

     total cpu time spent up to now is        4.0 secs

     total energy              =   -1756.26002793 Ry
     estimated scf accuracy    <       6.89289980 Ry

     iteration #  3     ecut=    50.00 Ry     beta= 0.70
     Davidson diagonalization with overlap
     ethr =  1.23E-03,  avg # of iterations =  4.0

     total cpu time spent up to now is        5.1 secs

     total energy              =   -1757.68904575 Ry
     estimated scf accuracy    <       1.32357902 Ry

     iteration #  4     ecut=    50.00 Ry     beta= 0.70
     Davidson diagonalization with overlap
     ethr =  2.36E-04,  avg # of iterations =  4.0

     total cpu time spent up to now is        6.1 secs

     total energy              =   -1757.55700942 Ry
     estimated scf accuracy    <       0.67602096 Ry

     iteration #  5     ecut=    50.00 Ry     beta= 0.70
     Davidson diagonalization with overlap
     ethr =  1.21E-04,  avg # of iterations =  9.0

     total cpu time spent up to now is        7.7 secs

     total energy              =   -1757.82550729 Ry
     estimated scf accuracy    <       0.96335060 Ry

     iteration #  6     ecut=    50.00 Ry     beta= 0.70
     Davidson diagonalization with overlap
     ethr =  1.21E-04,  avg # of iterations =  5.0

     total cpu time spent up to now is        8.6 secs

     total energy              =   -1757.70301511 Ry
     estimated scf accuracy    <       0.34740343 Ry

     iteration #  7     ecut=    50.00 Ry     beta= 0.70
     Davidson diagonalization with overlap
     ethr =  6.20E-05,  avg # of iterations =  5.0

     total cpu time spent up to now is        9.8 secs

     total energy              =   -1757.84380157 Ry
     estimated scf accuracy    <       0.08038270 Ry

     iteration #  8     ecut=    50.00 Ry     beta= 0.70
     Davidson diagonalization with overlap
     ethr =  1.44E-05,  avg # of iterations =  7.0

     total cpu time spent up to now is       10.8 secs

     total energy              =   -1757.82597621 Ry
     estimated scf accuracy    <       0.09124231 Ry

     iteration #  9     ecut=    50.00 Ry     beta= 0.70
     Davidson diagonalization with overlap
     ethr =  1.44E-05,  avg # of iterations =  2.0

     total cpu time spent up to now is       11.6 secs

     total energy              =   -1757.81254988 Ry
     estimated scf accuracy    <       0.03868551 Ry

     iteration # 10     ecut=    50.00 Ry     beta= 0.70
     Davidson diagonalization with overlap
     ethr =  6.91E-06,  avg # of iterations =  9.0

     total cpu time spent up to now is       13.1 secs

     total energy              =   -1757.83444337 Ry
     estimated scf accuracy    <       0.03245689 Ry

     iteration # 11     ecut=    50.00 Ry     beta= 0.70
     Davidson diagonalization with overlap
     ethr =  5.80E-06,  avg # of iterations =  2.0

     total cpu time spent up to now is       14.0 secs

     total energy              =   -1757.82942074 Ry
     estimated scf accuracy    <       0.01815868 Ry

     iteration # 12     ecut=    50.00 Ry     beta= 0.70
     Davidson diagonalization with overlap
     ethr =  3.24E-06,  avg # of iterations =  6.0

     total cpu time spent up to now is       15.0 secs

     total energy              =   -1757.83338648 Ry
     estimated scf accuracy    <       0.00324424 Ry

     iteration # 13     ecut=    50.00 Ry     beta= 0.70
     Davidson diagonalization with overlap
     ethr =  5.79E-07,  avg # of iterations =  5.0

     total cpu time spent up to now is       16.1 secs

     total energy              =   -1757.83423023 Ry
     estimated scf accuracy    <       0.00150756 Ry

     iteration # 14     ecut=    50.00 Ry     beta= 0.70
     Davidson diagonalization with overlap
     ethr =  2.69E-07,  avg # of iterations =  2.0

     total cpu time spent up to now is       16.9 secs

     total energy              =   -1757.83378506 Ry
     estimated scf accuracy    <       0.00143196 Ry

     iteration # 15     ecut=    50.00 Ry     beta= 0.70
     Davidson diagonalization with overlap
     ethr =  2.56E-07,  avg # of iterations =  3.0

     total cpu time spent up to now is       17.8 secs

     total energy              =   -1757.83376007 Ry
     estimated scf accuracy    <       0.00042915 Ry

     iteration # 16     ecut=    50.00 Ry     beta= 0.70
     Davidson diagonalization with overlap
     ethr =  7.66E-08,  avg # of iterations =  5.0

     total cpu time spent up to now is       19.3 secs

     total energy              =   -1757.83387293 Ry
     estimated scf accuracy    <       0.00026791 Ry

     iteration # 17     ecut=    50.00 Ry     beta= 0.70
     Davidson diagonalization with overlap
     ethr =  4.78E-08,  avg # of iterations =  4.0

     total cpu time spent up to now is       20.3 secs

     total energy              =   -1757.83390453 Ry
     estimated scf accuracy    <       0.00007550 Ry

     iteration # 18     ecut=    50.00 Ry     beta= 0.70
     Davidson diagonalization with overlap
     ethr =  1.35E-08,  avg # of iterations =  5.0

     total cpu time spent up to now is       21.5 secs

     total energy              =   -1757.83390552 Ry
     estimated scf accuracy    <       0.00013529 Ry

     iteration # 19     ecut=    50.00 Ry     beta= 0.70
     Davidson diagonalization with overlap
     ethr =  1.35E-08,  avg # of iterations =  2.0

     total cpu time spent up to now is       22.3 secs

     total energy              =   -1757.83387755 Ry
     estimated scf accuracy    <       0.00007957 Ry

     iteration # 20     ecut=    50.00 Ry     beta= 0.70
     Davidson diagonalization with overlap
     ethr =  1.35E-08,  avg # of iterations =  5.0

     total cpu time spent up to now is       23.5 secs

     total energy              =   -1757.83389906 Ry
     estimated scf accuracy    <       0.00001258 Ry

     iteration # 21     ecut=    50.00 Ry     beta= 0.70
     Davidson diagonalization with overlap
     ethr =  2.25E-09,  avg # of iterations =  5.0

     total cpu time spent up to now is       24.4 secs

     total energy              =   -1757.83389826 Ry
     estimated scf accuracy    <       0.00000649 Ry

     iteration # 22     ecut=    50.00 Ry     beta= 0.70
     Davidson diagonalization with overlap
     ethr =  1.16E-09,  avg # of iterations =  7.0

     total cpu time spent up to now is       26.1 secs

     total energy              =   -1757.83390090 Ry
     estimated scf accuracy    <       0.00002051 Ry

     iteration # 23     ecut=    50.00 Ry     beta= 0.70
     Davidson diagonalization with overlap
     ethr =  1.16E-09,  avg # of iterations =  2.0

     total cpu time spent up to now is       27.0 secs

     total energy              =   -1757.83389547 Ry
     estimated scf accuracy    <       0.00001301 Ry

     iteration # 24     ecut=    50.00 Ry     beta= 0.70
     Davidson diagonalization with overlap
     ethr =  1.16E-09,  avg # of iterations =  6.0

     total cpu time spent up to now is       28.5 secs

     total energy              =   -1757.83389907 Ry
     estimated scf accuracy    <       0.00000231 Ry

     iteration # 25     ecut=    50.00 Ry     beta= 0.70
     Davidson diagonalization with overlap
     ethr =  4.13E-10,  avg # of iterations =  6.0

     total cpu time spent up to now is       29.5 secs

     total energy              =   -1757.83389931 Ry
     estimated scf accuracy    <       0.00000051 Ry

     iteration # 26     ecut=    50.00 Ry     beta= 0.70
     Davidson diagonalization with overlap
     ethr =  9.03E-11,  avg # of iterations =  2.0

     total cpu time spent up to now is       30.3 secs

     total energy              =   -1757.83389930 Ry
     estimated scf accuracy    <       0.00000035 Ry

     iteration # 27     ecut=    50.00 Ry     beta= 0.70
     Davidson diagonalization with overlap
     ethr =  6.17E-11,  avg # of iterations =  2.0

     total cpu time spent up to now is       31.2 secs

     total energy              =   -1757.83389925 Ry
     estimated scf accuracy    <       0.00000022 Ry

     iteration # 28     ecut=    50.00 Ry     beta= 0.70
     Davidson diagonalization with overlap
     ethr =  4.00E-11,  avg # of iterations =  6.0

     total cpu time spent up to now is       32.3 secs

     total energy              =   -1757.83389927 Ry
     estimated scf accuracy    <       0.00000011 Ry

     iteration # 29     ecut=    50.00 Ry     beta= 0.70
     Davidson diagonalization with overlap
     ethr =  1.91E-11,  avg # of iterations =  4.0

     total cpu time spent up to now is       33.2 secs

     total energy              =   -1757.83389926 Ry
     estimated scf accuracy    <       0.00000004 Ry

     iteration # 30     ecut=    50.00 Ry     beta= 0.70
     Davidson diagonalization with overlap
     ethr =  6.38E-12,  avg # of iterations =  9.0

     total cpu time spent up to now is       34.8 secs

     total energy              =   -1757.83389928 Ry
     estimated scf accuracy    <       0.00000009 Ry

     iteration # 31     ecut=    50.00 Ry     beta= 0.70
     Davidson diagonalization with overlap
     ethr =  6.38E-12,  avg # of iterations =  6.0

     total cpu time spent up to now is       35.9 secs

     total energy              =   -1757.83389928 Ry
     estimated scf accuracy    <       0.00000002 Ry

     iteration # 32     ecut=    50.00 Ry     beta= 0.70
     Davidson diagonalization with overlap
     ethr =  2.92E-12,  avg # of iterations =  5.0

     total cpu time spent up to now is       36.8 secs

     total energy              =   -1757.83389928 Ry
     estimated scf accuracy    <          5.5E-09 Ry

     iteration # 33     ecut=    50.00 Ry     beta= 0.70
     Davidson diagonalization with overlap
     ethr =  9.80E-13,  avg # of iterations =  6.0

     total cpu time spent up to now is       38.1 secs

     total energy              =   -1757.83389928 Ry
     estimated scf accuracy    <          2.2E-09 Ry

     iteration # 34     ecut=    50.00 Ry     beta= 0.70
     Davidson diagonalization with overlap
     ethr =  3.98E-13,  avg # of iterations =  8.0

     total cpu time spent up to now is       39.0 secs

     total energy              =   -1757.83389928 Ry
     estimated scf accuracy    <          1.7E-09 Ry

     iteration # 35     ecut=    50.00 Ry     beta= 0.70
     Davidson diagonalization with overlap
     ethr =  3.00E-13,  avg # of iterations =  6.0

     total cpu time spent up to now is       40.2 secs

     total energy              =   -1757.83389928 Ry
     estimated scf accuracy    <          7.1E-10 Ry

     iteration # 36     ecut=    50.00 Ry     beta= 0.70
     Davidson diagonalization with overlap
     ethr =  1.27E-13,  avg # of iterations =  6.0

     total cpu time spent up to now is       41.2 secs

     total energy              =   -1757.83389928 Ry
     estimated scf accuracy    <          2.1E-10 Ry

     iteration # 37     ecut=    50.00 Ry     beta= 0.70
     Davidson diagonalization with overlap
     ethr =  1.00E-13,  avg # of iterations =  2.0

     total cpu time spent up to now is       42.0 secs

     End of self-consistent calculation

          k = 0.0000 0.0000 0.0000 ( 36107 PWs)   bands (ev):

   -20.7073 -20.7073 -20.6735 -20.6735 -20.5731 -20.5729 -20.5715 -20.5712
   -19.6256 -19.6256 -19.6253 -19.6253 -17.4055 -17.4054 -17.4004 -17.4002
   -15.5803 -15.5772 -15.5708 -15.5662 -15.5236 -15.5170 -15.5115 -15.5069
   -15.2048 -15.1934 -15.1864 -15.1754 -13.9289 -13.9280 -13.9193 -13.9192
   -13.1611 -13.1522 -13.1450 -13.1341 -13.0152 -13.0062 -12.9904 -12.9875
   -12.9035 -12.8892 -12.8784 -12.8651 -12.7716 -12.7463 -12.6786 -12.6580
   -12.5138 -12.4966 -12.4937 -12.4798 -12.1784 -12.1656 -12.1620 -12.1525
   -11.5436 -11.5306 -11.5108 -11.4923 -11.3983 -11.3855 -11.3620 -11.3557
   -10.4772 -10.4740 -10.4666 -10.4647  -9.9230  -9.9214  -9.8990  -9.8975
    -9.3270  -9.3266  -9.3243  -9.3218  -9.2498  -9.2295  -9.2141  -9.1979
    -9.1898  -9.1613  -9.1571  -9.1532  -8.9555  -8.9476  -8.9380  -8.9255
    -8.2661  -8.2449  -8.2277  -8.1932  -8.0070  -7.9892  -7.9492  -7.9287
    -7.7139  -7.7122  -7.6045  -7.5866  -7.3032  -7.2779  -7.2304  -7.2262
    -7.1722  -7.1654  -7.1630  -7.1435  -6.9718  -6.9670  -6.8594  -6.8552
    -6.3402  -6.3312  -6.3107  -6.2929  -6.1480  -6.1368  -6.1019  -6.0624
    -6.0537  -6.0307  -6.0196  -6.0165  -5.7391  -5.7251  -5.6743  -5.6438
    -5.6380  -5.6328  -5.5877  -5.5873  -5.5750  -5.5402  -5.5089  -5.4711
    -5.3892  -5.3821  -5.3807  -5.3733  -5.3679  -5.3497  -5.3464  -5.3242
    -5.1229  -5.1149  -5.0841  -5.0593  -4.9363  -4.9305  -4.8712  -4.8658
    -4.6022  -4.5818  -4.5743  -4.5739  -4.5120  -4.4392  -4.4261  -4.4009
    -4.3854  -4.3295  -4.3017  -4.2966  -4.2905  -4.2588  -4.2493  -4.1805
    -4.1771  -4.1276  -4.0795  -4.0670  -3.9487  -3.9472  -3.9031  -3.8970
    -3.8050  -3.8017  -3.7784  -3.7617  -3.7285  -3.7195  -3.7189  -3.7179
    -3.5860  -3.5801  -3.5785  -3.5649  -3.4871  -3.4450  -3.3642  -3.3155
    -3.3052  -3.2829  -3.2685  -3.2315  -3.2012  -3.1913  -3.1624  -3.1453
    -2.8702  -2.8528  -2.8520  -2.8438  -2.6804  -2.6775  -2.6259  -2.6008
    -2.5594  -2.5077  -2.4950  -2.4459  -2.4448  -2.4407  -2.4224  -2.4218
    -2.3917  -2.3855  -2.3670  -2.3605  -2.3078  -2.2732  -2.2112  -2.2102
    -1.9614  -1.9606  -1.8985  -1.8760  -1.8402  -1.8214  -1.7932  -1.7840
    -1.6178  -1.6142  -1.6109  -1.6052  -1.4204  -1.4136  -1.3345  -1.2803
    -1.2635  -1.2215  -1.1206  -1.1177  -0.8030  -0.7922  -0.7549  -0.7503
    -0.6317  -0.6291  -0.5850  -0.5808  -0.1511  -0.1483   0.0524   0.0554
     0.2456   0.2778   0.2853   0.3285   0.3600   0.3824   0.3972   0.4448
     0.8533   0.8724   0.8918   0.8976   0.9104   0.9206   0.9364   0.9529
     0.9596   0.9726   0.9759   0.9934   1.0721   1.0790   1.1940   1.1991

     highest occupied level (ev):     1.1991

!    total energy              =   -1757.83389928 Ry
     estimated scf accuracy    <          7.0E-11 Ry

     The total energy is the sum of the following terms:
     one-electron contribution =   -1404.64750211 Ry
     hartree contribution      =     906.72196989 Ry
     xc contribution           =    -631.29842776 Ry
     ewald contribution        =    -628.60993931 Ry

     convergence has been achieved in  37 iterations

     Forces acting on atoms (cartesian axes, Ry/au):

     atom    1 type  1   force =    -0.02087561   -0.03412172   -0.16509247
     atom    2 type  1   force =    -0.01456656   -0.00154058   -0.07252384
     atom    3 type  1   force =    -0.01735935   -0.05524020   -0.03870437
     atom    4 type  2   force =     0.09509698    0.00487299    0.05880396
     atom    5 type  3   force =     0.10869282   -0.14973429   -0.12156478
     atom    6 type  4   force =    -0.15892148    0.23558651    0.17610899
     atom    7 type  3   force =    -0.03216065   -0.03378260   -0.23207554
     atom    8 type  4   force =     0.05783597    0.03122523    0.32930332
     atom    9 type  3   force =    -0.14546707    0.14076354   -0.08903762
     atom   10 type  4   force =     0.21044722   -0.19860690    0.16035962
     atom   11 type  3   force =     0.01743889   -0.03922319   -0.03859822
     atom   12 type  3   force =     0.02320421    0.02764129    0.22419737
     atom   13 type  4   force =    -0.05251869   -0.03904812   -0.32804086
     atom   14 type  3   force =    -0.03133507    0.03087392   -0.02159925
     atom   15 type  3   force =     0.09167783   -0.02441467    0.22479881
     atom   16 type  4   force =    -0.04539858   -0.08245516   -0.32853107
     atom   17 type  3   force =    -0.06924920    0.01338860   -0.19632284
     atom   18 type  4   force =     0.03781073    0.09339494    0.31978049
     atom   19 type  3   force =     0.00855085    0.01741024    0.08671029
     atom   20 type  3   force =     0.01442384   -0.02301280   -0.01741036
     atom   21 type  3   force =     0.01679506    0.06493778    0.22930088
     atom   22 type  4   force =    -0.02271016   -0.07781007   -0.32447087
     atom   23 type  3   force =     0.14262591   -0.14133357    0.13417804
     atom   24 type  4   force =    -0.19613525    0.17797689   -0.20654570
     atom   25 type  3   force =    -0.02737484    0.05677671    0.02350826
     atom   26 type  3   force =    -0.00999530   -0.07322726   -0.21602156
     atom   27 type  4   force =     0.03054732    0.08415859    0.32239972
     atom   28 type  3   force =    -0.14116769    0.12165750   -0.13930164
     atom   29 type  4   force =     0.19964790   -0.16970731    0.20774797
     atom   30 type  3   force =     0.06349923    0.19146072    0.17920227
     atom   31 type  4   force =    -0.15615508   -0.21061010   -0.23171682
     atom   32 type  3   force =     0.02096220   -0.04341213   -0.01734620
     atom   33 type  3   force =     0.06896999    0.15904717    0.16102487
     atom   34 type  4   force =    -0.11147265   -0.21966902   -0.22651444
     atom   35 type  3   force =    -0.03087121   -0.01302704   -0.02934394
     atom   36 type  3   force =     0.12372473   -0.16937660   -0.06385933
     atom   37 type  4   force =    -0.18597419    0.25727032    0.09506979
     atom   38 type  3   force =    -0.07048416   -0.15905588   -0.16624507
     atom   39 type  4   force =     0.10617379    0.21924879    0.23144962
     atom   40 type  3   force =    -0.20658533    0.03605681   -0.08397916
     atom   41 type  4   force =     0.29975379   -0.03758861    0.13406316
     atom   42 type  3   force =    -0.11950815    0.13120516   -0.06393365
     atom   43 type  4   force =     0.08157316   -0.14670514   -0.18539287
     atom   44 type  4   force =    -0.12197433   -0.14173371    0.18561671
     atom   45 type  4   force =     0.19877344    0.12647178    0.10595688
     atom   46 type  3   force =     0.09886708   -0.15497637   -0.00474988
     atom   47 type  4   force =    -0.19977430   -0.01972113   -0.15115062
     atom   48 type  4   force =     0.14737292    0.20541457   -0.07254885
     atom   49 type  4   force =    -0.07837861    0.03128239    0.24515750
     atom   50 type  1   force =     0.02087561   -0.03412172    0.16509247
     atom   51 type  1   force =     0.01456656   -0.00154058    0.07252384
     atom   52 type  1   force =     0.01735935   -0.05524020    0.03870437
     atom   53 type  2   force =    -0.09509698    0.00487299   -0.05880396
     atom   54 type  3   force =    -0.10869282   -0.14973429    0.12156478
     atom   55 type  4   force =     0.15892148    0.23558651   -0.17610899
     atom   56 type  3   force =     0.03216065   -0.03378260    0.23207554
     atom   57 type  4   force =    -0.05783597    0.03122523   -0.32930332
     atom   58 type  3   force =     0.14546707    0.14076354    0.08903762
     atom   59 type  4   force =    -0.21044722   -0.19860690   -0.16035962
     atom   60 type  3   force =    -0.01743889   -0.03922319    0.03859822
     atom   61 type  3   force =    -0.02320421    0.02764129   -0.22419737
     atom   62 type  4   force =     0.05251869   -0.03904812    0.32804086
     atom   63 type  3   force =     0.03133507    0.03087392    0.02159925
     atom   64 type  3   force =    -0.09167783   -0.02441467   -0.22479881
     atom   65 type  4   force =     0.04539858   -0.08245516    0.32853107
     atom   66 type  3   force =     0.06924920    0.01338860    0.19632284
     atom   67 type  4   force =    -0.03781073    0.09339494   -0.31978049
     atom   68 type  3   force =    -0.00855085    0.01741024   -0.08671029
     atom   69 type  3   force =    -0.01442384   -0.02301280    0.01741036
     atom   70 type  3   force =    -0.01679506    0.06493778   -0.22930088
     atom   71 type  4   force =     0.02271016   -0.07781007    0.32447087
     atom   72 type  3   force =    -0.14262591   -0.14133357   -0.13417804
     atom   73 type  4   force =     0.19613525    0.17797689    0.20654570
     atom   74 type  3   force =     0.02737484    0.05677671   -0.02350826
     atom   75 type  3   force =     0.00999530   -0.07322726    0.21602156
     atom   76 type  4   force =    -0.03054732    0.08415859   -0.32239972
     atom   77 type  3   force =     0.14116769    0.12165750    0.13930164
     atom   78 type  4   force =    -0.19964790   -0.16970731   -0.20774797
     atom   79 type  3   force =    -0.06349923    0.19146072   -0.17920227
     atom   80 type  4   force =     0.15615508   -0.21061010    0.23171682
     atom   81 type  3   force =    -0.02096220   -0.04341213    0.01734620
     atom   82 type  3   force =    -0.06896999    0.15904717   -0.16102487
     atom   83 type  4   force =     0.11147265   -0.21966902    0.22651444
     atom   84 type  3   force =     0.03087121   -0.01302704    0.02934394
     atom   85 type  3   force =    -0.12372473   -0.16937660    0.06385933
     atom   86 type  4   force =     0.18597419    0.25727032   -0.09506979
     atom   87 type  3   force =     0.07048416   -0.15905588    0.16624507
     atom   88 type  4   force =    -0.10617379    0.21924879   -0.23144962
     atom   89 type  3   force =     0.20658533    0.03605681    0.08397916
     atom   90 type  4   force =    -0.29975379   -0.03758861   -0.13406316
     atom   91 type  3   force =     0.11950815    0.13120516    0.06393365
     atom   92 type  4   force =    -0.08157316   -0.14670514    0.18539287
     atom   93 type  4   force =     0.12197433   -0.14173371   -0.18561671
     atom   94 type  4   force =    -0.19877344    0.12647178   -0.10595688
     atom   95 type  3   force =    -0.09886708   -0.15497637    0.00474988
     atom   96 type  4   force =     0.19977430   -0.01972113    0.15115062
     atom   97 type  4   force =    -0.14737292    0.20541457    0.07254885
     atom   98 type  4   force =     0.07837861    0.03128239   -0.24515750
     atom   99 type  1   force =     0.02087561    0.03412172    0.16509247
     atom  100 type  1   force =     0.01456656    0.00154058    0.07252384
     atom  101 type  1   force =     0.01735935    0.05524020    0.03870437
     atom  102 type  2   force =    -0.09509698   -0.00487299   -0.05880396
     atom  103 type  3   force =    -0.10869282    0.14973429    0.12156478
     atom  104 type  4   force =     0.15892148   -0.23558651   -0.17610899
     atom  105 type  3   force =     0.03216065    0.03378260    0.23207554
     atom  106 type  4   force =    -0.05783597   -0.03122523   -0.32930332
     atom  107 type  3   force =     0.14546707   -0.14076354    0.08903762
     atom  108 type  4   force =    -0.21044722    0.19860690   -0.16035962
     atom  109 type  3   force =    -0.01743889    0.03922319    0.03859822
     atom  110 type  3   force =    -0.02320421   -0.02764129   -0.22419737
     atom  111 type  4   force =     0.05251869    0.03904812    0.32804086
     atom  112 type  3   force =     0.03133507   -0.03087392    0.02159925
     atom  113 type  3   force =    -0.09167783    0.02441467   -0.22479881
     atom  114 type  4   force =     0.04539858    0.08245516    0.32853107
     atom  115 type  3   force =     0.06924920   -0.01338860    0.19632284
     atom  116 type  4   force =    -0.03781073   -0.09339494   -0.31978049
     atom  117 type  3   force =    -0.00855085   -0.01741024   -0.08671029
     atom  118 type  3   force =    -0.01442384    0.02301280    0.01741036
     atom  119 type  3   force =    -0.01679506   -0.06493778   -0.22930088
     atom  120 type  4   force =     0.02271016    0.07781007    0.32447087
     atom  121 type  3   force =    -0.14262591    0.14133357   -0.13417804
     atom  122 type  4   force =     0.19613525   -0.17797689    0.20654570
     atom  123 type  3   force =     0.02737484   -0.05677671   -0.02350826
     atom  124 type  3   force =     0.00999530    0.07322726    0.21602156
     atom  125 type  4   force =    -0.03054732   -0.08415859   -0.32239972
     atom  126 type  3   force =     0.14116769   -0.12165750    0.13930164
     atom  127 type  4   force =    -0.19964790    0.16970731   -0.20774797
     atom  128 type  3   force =    -0.06349923   -0.19146072   -0.17920227
     atom  129 type  4   force =     0.15615508    0.21061010    0.23171682
     atom  130 type  3   force =    -0.02096220    0.04341213    0.01734620
     atom  131 type  3   force =    -0.06896999   -0.15904717   -0.16102487
     atom  132 type  4   force =     0.11147265    0.21966902    0.22651444
     atom  133 type  3   force =     0.03087121    0.01302704    0.02934394
     atom  134 type  3   force =    -0.12372473    0.16937660    0.06385933
     atom  135 type  4   force =     0.18597419   -0.25727032   -0.09506979
     atom  136 type  3   force =     0.07048416    0.15905588    0.16624507
     atom  137 type  4   force =    -0.10617379   -0.21924879   -0.23144962
     atom  138 type  3   force =     0.20658533   -0.03605681    0.08397916
     atom  139 type  4   force =    -0.29975379    0.03758861   -0.13406316
     atom  140 type  3   force =     0.11950815   -0.13120516    0.06393365
     atom  141 type  4   force =    -0.08157316    0.14670514    0.18539287
     atom  142 type  4   force =     0.12197433    0.14173371   -0.18561671
     atom  143 type  4   force =    -0.19877344   -0.12647178   -0.10595688
     atom  144 type  3   force =    -0.09886708    0.15497637    0.00474988
     atom  145 type  4   force =     0.19977430    0.01972113    0.15115062
     atom  146 type  4   force =    -0.14737292   -0.20541457    0.07254885
     atom  147 type  4   force =     0.07837861   -0.03128239   -0.24515750
     atom  148 type  1   force =    -0.02087561    0.03412172   -0.16509247
     atom  149 type  1   force =    -0.01456656    0.00154058   -0.07252384
     atom  150 type  1   force =    -0.01735935    0.05524020   -0.03870437
     atom  151 type  2   force =     0.09509698   -0.00487299    0.05880396
     atom  152 type  3   force =     0.10869282    0.14973429   -0.12156478
     atom  153 type  4   force =    -0.15892148   -0.23558651    0.17610899
     atom  154 type  3   force =    -0.03216065    0.03378260   -0.23207554
     atom  155 type  4   force =     0.05783597   -0.03122523    0.32930332
     atom  156 type  3   force =    -0.14546707   -0.14076354   -0.08903762
     atom  157 type  4   force =     0.21044722    0.19860690    0.16035962
     atom  158 type  3   force =     0.01743889    0.03922319   -0.03859822
     atom  159 type  3   force =     0.02320421   -0.02764129    0.22419737
     atom  160 type  4   force =    -0.05251869    0.03904812   -0.32804086
     atom  161 type  3   force =    -0.03133507   -0.03087392   -0.02159925
     atom  162 type  3   force =     0.09167783    0.02441467    0.22479881
     atom  163 type  4   force =    -0.04539858    0.08245516   -0.32853107
     atom  164 type  3   force =    -0.06924920   -0.01338860   -0.19632284
     atom  165 type  4   force =     0.03781073   -0.09339494    0.31978049
     atom  166 type  3   force =     0.00855085   -0.01741024    0.08671029
     atom  167 type  3   force =     0.01442384    0.02301280   -0.01741036
     atom  168 type  3   force =     0.01679506   -0.06493778    0.22930088
     atom  169 type  4   force =    -0.02271016    0.07781007   -0.32447087
     atom  170 type  3   force =     0.14262591    0.14133357    0.13417804
     atom  171 type  4   force =    -0.19613525   -0.17797689   -0.20654570
     atom  172 type  3   force =    -0.02737484   -0.05677671    0.02350826
     atom  173 type  3   force =    -0.00999530    0.07322726   -0.21602156
     atom  174 type  4   force =     0.03054732   -0.08415859    0.32239972
     atom  175 type  3   force =    -0.14116769   -0.12165750   -0.13930164
     atom  176 type  4   force =     0.19964790    0.16970731    0.20774797
     atom  177 type  3   force =     0.06349923   -0.19146072    0.17920227
     atom  178 type  4   force =    -0.15615508    0.21061010   -0.23171682
     atom  179 type  3   force =     0.02096220    0.04341213   -0.01734620
     atom  180 type  3   force =     0.06896999   -0.15904717    0.16102487
     atom  181 type  4   force =    -0.11147265    0.21966902   -0.22651444
     atom  182 type  3   force =    -0.03087121    0.01302704   -0.02934394
     atom  183 type  3   force =     0.12372473    0.16937660   -0.06385933
     atom  184 type  4   force =    -0.18597419   -0.25727032    0.09506979
     atom  185 type  3   force =    -0.07048416    0.15905588   -0.16624507
     atom  186 type  4   force =     0.10617379   -0.21924879    0.23144962
     atom  187 type  3   force =    -0.20658533   -0.03605681   -0.08397916
     atom  188 type  4   force =     0.29975379    0.03758861    0.13406316
     atom  189 type  3   force =    -0.11950815   -0.13120516   -0.06393365
     atom  190 type  4   force =     0.08157316    0.14670514   -0.18539287
     atom  191 type  4   force =    -0.12197433    0.14173371    0.18561671
     atom  192 type  4   force =     0.19877344   -0.12647178    0.10595688
     atom  193 type  3   force =     0.09886708    0.15497637   -0.00474988
     atom  194 type  4   force =    -0.19977430    0.01972113   -0.15115062
     atom  195 type  4   force =     0.14737292   -0.20541457   -0.07254885
     atom  196 type  4   force =    -0.07837861   -0.03128239    0.24515750

     Total force =     3.492321     Total SCF correction =     0.000020

     BFGS Geometry Optimization
     Energy error            =      0.0E+00
     Gradient error          =      3.3E-01

     number of scf cycles    =   1
     number of bfgs steps    =   0

     energy   new            =   -1757.8338992812 Ry

     new trust radius        =       0.3499052847 bohr
     new conv_thr            =            1.0E-10 Ry


ATOMIC_POSITIONS (angstrom)
O            -4.5755947161        3.8365154039        9.3738118558
O             0.0435120263        4.3131972376       10.8474112255
O             3.8066223090        5.3112025453       12.0051164204
N            -7.2826075140        2.7321965948       12.8123498837
C            -1.7529823048        1.4612414658       12.9837123778
H            -2.3362155771        2.3227245014       13.6289052368
C            -0.9716982615        0.6977468568       13.5404202350
H            -0.7742820925        0.8299644597       14.7500598407
C            -0.3781691961        5.4425122187       12.9359830990
H             0.4036301650        4.6964055264       13.5068444469
C            -0.5161425143        5.2138268643       11.6452535905
C            -1.3809814010        0.4521092216       11.1532871272
H            -1.5752740533        0.3107870128        9.9501080945
C            -2.0554670537        1.4357616144       11.6978696804
C            -2.8749821008        2.2702075135       11.1076374870
H            -3.0888941617        2.0311802682        9.9196467868
C            -3.5818402201        3.3256427030       11.3364487251
H            -3.4007180025        3.6127843931       12.4980501876
C            -4.4211310438        4.1182790205       10.6668208704
C            -5.1496415129        5.2026986328       11.2028504248
C            -5.9757204290        0.3547333511       10.5390396892
H            -6.0672982410        0.0662977621        9.3434016114
C            -6.6296859797        1.2759424566       10.9792880891
H            -7.3564065171        1.9385145534       10.2325232106
C            -6.6467744608        1.6988954984       12.2367758075
C            -5.7936308554        0.9268634024       12.8979317136
H            -5.6794905868        1.2439451372       14.0781700440
C            -5.1518117460        5.6266505341       12.4473580791
H            -4.4168741904        4.9887367314       13.1991918208
C            -8.4669405367        3.0454528076       12.4858236680
H            -8.9566047007        2.2475692929       11.6497638713
C            -9.2803838595        4.0264109710       12.8414938540
C             5.8186493373        4.2985185390       12.3823126924
H             5.4128190462        3.4835749194       11.5517004123
C             4.9882807666        5.2620347054       12.6322992648
C             5.5033966754        0.4261144009       13.5406303180
H             4.8057926845        1.3704829185       13.8782988380
C            -9.6734104396        0.2530922155       14.0447157793
H            -9.2803723102        1.0540010627       14.8988544964
C            -8.9562852084        4.9569412417       13.7289168497
H            -7.8452648774        4.8168815648       14.2252076279
C             0.8872939426        3.4848314182       11.4323263470
H             1.3359179198        2.7462040108       10.6932634555
H             0.4367185249        2.8283022522       12.2404436024
H             1.7828864248        3.9680724944       11.9192739652
C             3.1450125181        0.8115345192       12.1637266208
H             2.2092578721        0.8516908777       11.5240964148
H             3.7208815787        1.7458577509       11.8715827137
H             2.7802489959        1.0127912793       13.2112615625
O            13.2329521361        1.0213154039        0.4065956742
O            -6.6654397563        1.4979972376       18.4938113745
O           -10.4285500490        2.4960025453       17.3361061796
N             0.6606797740        5.5473965948       16.5288727163
C            -4.8689454352        4.2764414658       16.3575102222
H            -4.2857121629        5.1379245014       15.7123173632
C            -5.6502294685        3.5129468568       15.8008023650
H            -5.8476456475        3.6451644597       14.5911627593
C            -6.2437585439        2.6273122187       16.4052394910
H            -7.0255579050        1.8812055264       15.8343781531
C            -6.1057852257        2.3986268643       17.6959690095
C            -5.2409463290        3.2673092216       18.1879354628
H            -5.0466536867        3.1259870128       19.3911145055
C            -4.5664606863        4.2509616144       17.6433529196
C            -3.7469456292        5.0854075135       18.2335851130
H            -3.5330335683        4.8463802682       19.4215758132
C            -3.0400875199        0.5104427030       18.0047738749
H            -3.2212097375        0.7975843931       16.8431724124
C            -2.2007966962        1.3030790205       18.6744017296
C            -1.4722862271        2.3874986328       18.1383721752
C            -0.6462073110        3.1699333511       18.8021829108
H            14.7246556610        2.8814977621        0.4370059186
C             0.0077582397        4.0911424566       18.3619345109
H             0.7344787871        4.7537145534       19.1086993894
C             0.0248467208        4.5140954984       17.1044467925
C            -0.8282968846        3.7420634024       16.4432908864
H            -0.9424371432        4.0591451372       15.2630525460
C            -1.4701159940        2.8114505341       16.8938645209
H            -2.2050535496        2.1735367314       16.1420307792
C             1.8450127967        0.2302528076       16.8553989320
H             2.3346769607        5.0627692929       17.6914587187
C             2.6584561195        1.2112109710       16.4997287460
C           -12.4405770773        1.4833185390       16.9589099076
H           -12.0347467862        0.6683749194       17.7895221777
C           -11.6102085066        2.4468347054       16.7089233352
C           -12.1253244154        3.2413144009       15.8005922820
H           -11.4277204145        4.1856829185       15.4629237620
C             3.0514826996        3.0682922155       15.2965068107
H             2.6584445702        3.8692010627       14.4423681036
C             2.3343574684        2.1417412417       15.6123057503
H             1.2233371374        2.0016815648       15.1160149621
C            -7.5092216726        0.6696314182       17.9088962530
H            -7.9578456598       -0.0689959892       18.6479591445
H            -7.0586462649        0.0131022522       17.1007789976
H            -8.4048141548        1.1528724944       17.4219486348
C            -9.7669402581        3.6267345192       17.1774959792
H            -8.8311856121        3.6668908777       17.8171261852
H           -10.3428093187        4.5610577509       17.4696398863
H            -9.4021767359        3.8279912793       16.1299610275
O             5.5933095561        1.7938845961       10.1870032042
O             0.9742028137        1.3172027624        8.7134038345
O            -2.7889074690        0.3191974547        7.5556986496
N             8.3003223540        2.8982034052        6.7484651763
C             2.7706971448        4.1691585342        6.5771026922
H             3.3539304171        3.3076754986        5.9319098332
C             1.9894131015        4.9326531432        6.0203948250
H             1.7919969325        4.8004355403        4.8107552293
C             1.3958840361        0.1878877813        6.6248319610
H             0.6140846750        0.9339944736        6.0539706131
C             1.5338573543        0.4165731357        7.9155614795
C             2.3986962410        5.1782907784        8.4075279328
H             2.5929888933        5.3196129872        9.6107069755
C             3.0731818937        4.1946383856        7.8629453896
C             3.8926969408        3.3601924865        8.4531775830
H             4.1066090117        3.5992197318        9.6411682832
C             4.5995550601        2.3047572970        8.2243663449
H             4.4184328425        2.0176156069        7.0627648724
C             5.4388458838        1.5121209795        8.8939941996
C             6.1673563529        0.4277013672        8.3579646452
C             6.9934352690        5.2756666489        9.0217753808
H             7.0850130810        5.5641022379       10.2174134586
C             7.6474008197        4.3544575434        8.5815269809
H             8.3741213571        3.6918854466        9.3282918594
C             7.6644893008        3.9315045016        7.3240392625
C             6.8113456954        4.7035365976        6.6628833564
H             6.6972054368        4.3864548628        5.4826450160
C             6.1695265860        0.0037494659        7.1134569809
H             5.4345890304        0.6416632686        6.3616232492
C             9.4846553767        2.5849471924        7.0749913920
H             9.9743195407        3.3828307071        7.9110511887
C            10.2980986995        1.6039890290        6.7193212160
C            -4.8009344973        1.3318814610        7.1785023776
H            -4.3951042062        2.1468250806        8.0091146477
C            -3.9705659266        0.3683652946        6.9285157952
C            -4.4856818354        5.2042855991        6.0201847420
H            -3.7880778345        4.2599170815        5.6825162320
C            10.6911252796        5.3773077845        5.5160992807
H            10.2980871502        4.5763989373        4.6619605736
C             9.9740000484        0.6734587583        5.8318982103
H             8.8629797174        0.8135184352        5.3356074321
C             0.1304209074        2.1455685818        8.1284887230
H            -0.3182030798        2.8841959892        8.8675516145
H             0.5809963151        2.8020977478        7.3203714676
H            -0.7651715748        1.6623275056        7.6415411048
C            -2.1272976781        4.8188654808        7.3970884492
H            -1.1915430321        4.7787091223        8.0367186452
H            -2.7031667387        3.8845422491        7.6892323563
H            -1.7625341559        4.6176087207        6.3495534975
O           -12.2152372961        4.6090845961       19.1542193858
O             7.6831546063        4.1324027624        1.0670036955
O            11.4462648890        3.1343974547        2.2247088804
N             0.3570350660        0.0830034052        3.0319423537
C             5.8866602752        1.3539585342        3.2033048478
H             5.3034270029        0.4924754986        3.8484977068
C             6.6679443185        2.1174531432        3.7600127050
H             6.8653604875        1.9852355403        4.9696523107
C             7.2614733839        3.0030877813        3.1555755690
H             8.0432727450        3.7491944736        3.7264369169
C             7.1235000657        3.2317731357        1.8648460605
C             6.2586611790        2.3630907784        1.3728795972
H             6.0643685267        2.5044129872        0.1697005545
C             5.5841755263        1.3794383856        1.9174621404
C             4.7646604792        0.5449924865        1.3272299570
H             4.5507484083        0.7840197318        0.1392392568
C             4.0578023599        5.1199572970        1.5560411951
H             4.2389245775        4.8328156069        2.7176426576
C             3.2185115362        4.3273209795        0.8864133304
C             2.4900010671        3.2429013672        1.4224428848
C             1.6639221510        2.4604666489        0.7586321492
H           -13.7069408210        2.7489022379       19.1238091414
C             1.0099566003        1.5392575434        1.1988805591
H             0.2832360629        0.8766854466        0.4521156706
C             0.9928681192        1.1163045016        2.4563682675
C             1.8460117246        1.8883365976        3.1175241836
H             1.9601519932        1.5712548628        4.2977625140
C             2.4878308340        2.8189494659        2.6669505491
H             3.2227683896        3.4568632686        3.4187842808
C            -0.8272979567        5.4001471924        2.7054161380
H            -1.3169621207        0.5676307071        1.8693563413
C            -1.6407412795        4.4191890290        3.0610863140
C            13.4582919173        4.1470814610        2.6019051624
H            13.0524616262        4.9620250806        1.7712928823
C            12.6279233466        3.1835652946        2.8518917348
C            13.1430392554        2.3890855991        3.7602227880
H            12.4454352645        1.4447170815        4.0978913080
C            -2.0337678596        2.5621077845        4.2643082493
H            -1.6407297302        1.7611989373        5.1184469564
C            -1.3166426284        3.4886587583        3.9485093197
H            -0.2056222974        3.6287184352        4.4448000979
C             8.5269365126        4.9607685818        1.6519188070
H             8.9755604998        5.6993959892        0.9128559255
H             8.0763611049        5.6172977478        2.4600360624
H             9.4225289948        4.4775275056        2.1388664352
C            10.7846550981        2.0036654808        2.3833190808
H             9.8489004521        1.9635091223        1.7436888848
H            11.3605241587        1.0693422491        2.0911751837
H            10.4198915759        1.8024087207        3.4308540325



     Writing output data file ./outdir/4amp.save/
     NEW-OLD atomic charge density approx. for the potential

     Check: negative core charge=   -0.000003

     total cpu time spent up to now is       44.1 secs

