
     Program PWSCF v.7.2 starts on  2Mar2024 at 16:43:57

     This program is part of the open-source Quantum ESPRESSO suite
     for quantum simulation of materials; please cite
         "P. Giannozzi et al., J. Phys.:Condens. Matter 21 395502 (2009);
         "P. Giannozzi et al., J. Phys.:Condens. Matter 29 465901 (2017);
         "P. Giannozzi et al., J. Chem. Phys. 152 154105 (2020);
          URL http://www.quantum-espresso.org",
     in publications or presentations arising from this work. More details at
     http://www.quantum-espresso.org/quote

     Parallel version (MPI), running on   120 processors

     MPI processes distributed on     1 nodes
     454089 MiB available memory on the printing compute node when the environment starts

     Reading input from 4amp33iso_relax2.in

     Current dimensions of program PWSCF are:
     Max number of different atomic species (ntypx) = 10
     Max number of k-points (npk) =  40000
     Max angular momentum in pseudopotentials (lmaxx) =  4

     File ./outdir/4amp33iso.update deleted, as requested

     File ./outdir/4amp33iso.bfgs deleted, as requested
     file F.pbe-n-rrkjus_psl.1.0.0.UPF: wavefunction(s)  2S renormalized

     IMPORTANT: XC functional enforced from input :
     Exchange-correlation= PBE
                           (   1   4   3   4   0   0   0)
     Any further DFT definition will be discarded
     Please, verify this is what you really want


     gamma-point specific algorithms are used

     R & G space division:  proc/nbgrp/npool/nimage =     120
     Subspace diagonalization in iterative solution of the eigenvalue problem:
     a serial algorithm will be used


     Parallelization info
     --------------------
     sticks:   dense  smooth     PW     G-vecs:    dense   smooth      PW
     Min         522     208     51               121998    30852    3848
     Max         524     210     54               122028    30882    3864
     Sum       62773   25133   6279             14641353  3704049  462857

     Using Slab Decomposition



     bravais-lattice index     =            0
     lattice parameter (alat)  =      32.1253  a.u.
     unit-cell volume          =   77551.8600 (a.u.)^3
     number of atoms/cell      =           47
     number of atomic types    =            5
     number of electrons       =       164.00
     number of Kohn-Sham states=           82
     kinetic-energy cutoff     =      50.0000  Ry
     charge density cutoff     =     500.0000  Ry
     scf convergence threshold =      1.0E-07
     mixing beta               =       0.7000
     number of iterations used =            8  local-TF  mixing
     energy convergence thresh.=      5.0E-04
     force convergence thresh. =      5.0E-03
     Exchange-correlation= PBE
                           (   1   4   3   4   0   0   0)
     nstep                     =           50

     Assuming isolated system, Martyna-Tuckerman method


     celldm(1)=  32.125344  celldm(2)=   0.000000  celldm(3)=   0.000000
     celldm(4)=   0.000000  celldm(5)=   0.000000  celldm(6)=   0.000000

     crystal axes: (cart. coord. in units of alat)
               a(1) = (   1.000000   0.000000   0.000000 )
               a(2) = (   0.000000   1.529412   0.000000 )
               a(3) = (   0.000000   0.000000   1.529412 )

     reciprocal axes: (cart. coord. in units 2 pi/alat)
               b(1) = (  1.000000  0.000000  0.000000 )
               b(2) = (  0.000000  0.653846  0.000000 )
               b(3) = (  0.000000  0.000000  0.653846 )


     PseudoPot. # 1 for O  read from file:
     /home/cyk/q-e-qe-7.2/pp/O.pbe-n-rrkjus_psl.1.0.0.UPF
     MD5 check sum: 91400c9766925bcf19f520983a725ff0
     Pseudo is Ultrasoft + core correction, Zval =  6.0
     Generated using &quot;atomic&quot; code by A. Dal Corso  v.6.3MaX
     Using radial grid of 1095 points,  4 beta functions with:
                l(1) =   0
                l(2) =   0
                l(3) =   1
                l(4) =   1
     Q(r) pseudized with 0 coefficients


     PseudoPot. # 2 for N  read from file:
     /home/cyk/q-e-qe-7.2/pp/N.pbe-n-rrkjus_psl.1.0.0.UPF
     MD5 check sum: ada94e3ed05223de5319d0572dc76806
     Pseudo is Ultrasoft + core correction, Zval =  5.0
     Generated using &quot;atomic&quot; code by A. Dal Corso  v.6.3MaX
     Using radial grid of 1085 points,  4 beta functions with:
                l(1) =   0
                l(2) =   0
                l(3) =   1
                l(4) =   1
     Q(r) pseudized with 0 coefficients


     PseudoPot. # 3 for C  read from file:
     /home/cyk/q-e-qe-7.2/pp/C.pbe-n-rrkjus_psl.1.0.0.UPF
     MD5 check sum: 1fdd950c42eb37d8afe3dd2f8d12311e
     Pseudo is Ultrasoft + core correction, Zval =  4.0
     Generated using &quot;atomic&quot; code by A. Dal Corso  v.6.3MaX
     Using radial grid of 1073 points,  4 beta functions with:
                l(1) =   0
                l(2) =   0
                l(3) =   1
                l(4) =   1
     Q(r) pseudized with 0 coefficients


     PseudoPot. # 4 for H  read from file:
     /home/cyk/q-e-qe-7.2/pp/H.pbe-rrkjus_psl.1.0.0.UPF
     MD5 check sum: 3f4114867bd07edc7f1424d066fc1888
     Pseudo is Ultrasoft, Zval =  1.0
     Generated using &quot;atomic&quot; code by A. Dal Corso  v.6.3MaX
     Using radial grid of  929 points,  2 beta functions with:
                l(1) =   0
                l(2) =   0
     Q(r) pseudized with 0 coefficients


     PseudoPot. # 5 for F  read from file:
     /home/cyk/q-e-qe-7.2/pp/F.pbe-n-rrkjus_psl.1.0.0.UPF
     MD5 check sum: 54b1cd0d2e22d705595f13732da1ccc9
     Pseudo is Ultrasoft + core correction, Zval =  7.0
     Generated using &quot;atomic&quot; code by A. Dal Corso  v.6.3MaX
     Using radial grid of 1105 points,  4 beta functions with:
                l(1) =   0
                l(2) =   0
                l(3) =   1
                l(4) =   1
     Q(r) pseudized with 0 coefficients


     atomic species   valence    mass     pseudopotential
        O              6.00    16.00000     O ( 1.00)
        N              5.00    14.00000     N ( 1.00)
        C              4.00    12.00000     C ( 1.00)
        H              1.00     1.00000     H ( 1.00)
        F              7.00    19.00000     F ( 1.00)

     No symmetry found



   Cartesian axes

     site n.     atom                  positions (alat units)
         1           O   tau(   1) = (   0.6545491   0.5893507   0.7116357  )
         2           N   tau(   2) = (   0.5373179   0.8868234   0.9084339  )
         3           C   tau(   3) = (   0.4419892   0.5542695   0.4891255  )
         4           H   tau(   4) = (   0.4168247   0.6045679   0.5202962  )
         5           C   tau(   5) = (   0.4043714   0.5267455   0.4213601  )
         6           H   tau(   6) = (   0.3506984   0.5551144   0.4018075  )
         7           C   tau(   7) = (   0.4325245   0.4597810   0.3827632  )
         8           C   tau(   8) = (   0.5006409   0.4236599   0.4111378  )
         9           H   tau(   9) = (   0.5250509   0.3738408   0.3797817  )
        10           C   tau(  10) = (   0.5394691   0.4523312   0.4777150  )
        11           H   tau(  11) = (   0.5946090   0.4254547   0.4966190  )
        12           C   tau(  12) = (   0.5111047   0.5190495   0.5181246  )
        13           C   tau(  13) = (   0.5544768   0.5461730   0.5872129  )
        14           H   tau(  14) = (   0.6075028   0.5121609   0.6008204  )
        15           C   tau(  15) = (   0.5373297   0.6068765   0.6363191  )
        16           H   tau(  16) = (   0.4851828   0.6432950   0.6265481  )
        17           C   tau(  17) = (   0.5932503   0.6273576   0.7009154  )
        18           C   tau(  18) = (   0.5757108   0.6966561   0.7523072  )
        19           C   tau(  19) = (   0.6376867   0.7310162   0.7953142  )
        20           H   tau(  20) = (   0.6969658   0.7085145   0.7872973  )
        21           C   tau(  21) = (   0.6247755   0.7937091   0.8458663  )
        22           H   tau(  22) = (   0.6729003   0.8225526   0.8767387  )
        23           C   tau(  23) = (   0.5483233   0.8226327   0.8583026  )
        24           C   tau(  24) = (   0.4860038   0.7889496   0.8155011  )
        25           H   tau(  25) = (   0.4274692   0.8139552   0.8213969  )
        26           C   tau(  26) = (   0.5000909   0.7280359   0.7623957  )
        27           H   tau(  27) = (   0.4507928   0.7041965   0.7292742  )
        28           C   tau(  28) = (   0.4828115   0.8868368   0.9608205  )
        29           H   tau(  29) = (   0.4456647   0.8344525   0.9729656  )
        30           C   tau(  30) = (   0.4669522   0.9550151   1.0113933  )
        31           C   tau(  31) = (   0.5111315   1.0247837   1.0077387  )
        32           H   tau(  32) = (   0.5555325   1.0289628   0.9618666  )
        33           C   tau(  33) = (   0.4998657   1.0858059   1.0621505  )
        34           H   tau(  34) = (   0.5337136   1.1396554   1.0554693  )
        35           C   tau(  35) = (   0.4419812   1.0791400   1.1203436  )
        36           C   tau(  36) = (   0.3945817   1.0120024   1.1207448  )
        37           H   tau(  37) = (   0.3458541   1.0087229   1.1613831  )
        38           C   tau(  38) = (   0.4072316   0.9503738   1.0682595  )
        39           H   tau(  39) = (   0.3705196   0.8977529   1.0706260  )
        40           C   tau(  40) = (   0.3932106   0.4296307   0.3084471  )
        41           C   tau(  41) = (   0.4259618   1.1417432   1.1812706  )
        42           F   tau(  42) = (   0.3164905   0.4520761   0.3019054  )
        43           F   tau(  43) = (   0.4309621   0.4565724   0.2428801  )
        44           F   tau(  44) = (   0.3942005   0.3493927   0.3040131  )
        45           F   tau(  45) = (   0.3500199   1.1698489   1.1773914  )
        46           F   tau(  46) = (   0.4742148   1.2058717   1.1740141  )
        47           F   tau(  47) = (   0.4351598   1.1129974   1.2565833  )

     --------------------------------------------
     DFT-D3 Dispersion Correction (3-body terms):
     --------------------------------------------
       Reference C6 values for interpolation:

         atom   Coordination number   C6
         H          0.912             6.05
         H          0.000            15.18
         C          0.000            98.23
         C          0.987            86.49
         C          1.998            58.72
         C          2.999            51.56
         C          3.984            36.41
         N          0.000            50.54
         N          0.994            44.25
         N          2.014            39.35
         N          2.990            31.16
         O          0.000            31.01
         O          0.993            25.63
         O          1.989            20.74
         F          0.000            19.38
         F          0.998            14.27

       Values used:

         atom   Coordination number  R0_AB[au]  C6      C8
         O          1.062            2.345     25.52    515.03
         N          2.130            2.478     38.93    858.83
         C          3.164            2.750     50.42   1458.10
         H          1.003            2.062      6.18     74.69
         C          3.159            2.750     50.46   1459.40
         H          1.004            2.062      6.18     74.68
         C          3.201            2.750     50.05   1447.54
         C          3.164            2.750     50.42   1458.18
         H          1.004            2.062      6.18     74.67
         C          3.172            2.750     50.34   1455.89
         H          1.002            2.062      6.18     74.69
         C          3.151            2.750     50.52   1461.21
         C          3.126            2.750     50.71   1466.69
         H          1.005            2.062      6.18     74.67
         C          3.087            2.750     50.96   1473.74
         H          1.002            2.062      6.18     74.70
         C          3.113            2.750     50.80   1469.30
         C          3.174            2.750     50.33   1455.50
         C          3.171            2.750     50.35   1456.13
         H          1.004            2.062      6.18     74.68
         C          3.164            2.750     50.41   1457.99
         H          1.003            2.062      6.18     74.69
         C          3.218            2.750     49.84   1441.60
         C          3.162            2.750     50.43   1458.50
         H          1.003            2.062      6.18     74.68
         C          3.161            2.750     50.44   1458.90
         H          1.004            2.062      6.18     74.68
         C          3.164            2.750     50.42   1458.18
         H          0.999            2.062      6.18     74.73
         C          3.167            2.750     50.39   1457.34
         C          3.168            2.750     50.38   1457.06
         H          1.004            2.062      6.18     74.68
         C          3.155            2.750     50.49   1460.33
         H          1.003            2.062      6.18     74.68
         C          3.198            2.750     50.07   1448.22
         C          3.175            2.750     50.31   1455.09
         H          1.005            2.062      6.18     74.66
         C          3.170            2.750     50.36   1456.56
         H          1.003            2.062      6.18     74.69
         C          4.053            2.750     36.57   1057.70
         C          4.055            2.750     36.57   1057.64
         F          1.083            2.173     14.31    244.88
         F          1.085            2.173     14.31    244.87
         F          1.085            2.173     14.31    244.87
         F          1.079            2.173     14.31    244.90
         F          1.079            2.173     14.31    244.90
         F          1.078            2.173     14.31    244.91

         Molecular C6 ( Ry / a.u.^6 ) =     56624.68


     number of k points=     1
                       cart. coord. in units 2pi/alat
        k(    1) = (   0.0000000   0.0000000   0.0000000), wk =   2.0000000

     Dense  grid:  7320677 G-vectors     FFT dimensions: ( 240, 360, 360)

     Smooth grid:  1852025 G-vectors     FFT dimensions: ( 150, 225, 225)

     Estimated max dynamical RAM per process >     169.35 MB

     Estimated total dynamical RAM >      19.85 GB

     Initial potential from superposition of free atoms

     starting charge     163.9988, renormalised to     164.0000

     negative rho (up, down):  9.881E-03 0.000E+00
     Starting wfcs are  143 randomized atomic wfcs

     total cpu time spent up to now is       12.5 secs

     Self-consistent Calculation

     iteration #  1     ecut=    50.00 Ry     beta= 0.70
     Davidson diagonalization with overlap
     ethr =  1.00E-02,  avg # of iterations =  3.0

     negative rho (up, down):  6.288E-04 0.000E+00

     total cpu time spent up to now is       38.0 secs

     total energy              =    -660.79661725 Ry
     estimated scf accuracy    <       3.27785699 Ry

     iteration #  2     ecut=    50.00 Ry     beta= 0.70
     Davidson diagonalization with overlap
     ethr =  2.00E-03,  avg # of iterations =  4.0

     negative rho (up, down):  6.269E-05 0.000E+00

     total cpu time spent up to now is       57.1 secs

     total energy              =    -660.83286729 Ry
     estimated scf accuracy    <       1.31107997 Ry

     iteration #  3     ecut=    50.00 Ry     beta= 0.70
     Davidson diagonalization with overlap
     ethr =  7.99E-04,  avg # of iterations =  5.0

     negative rho (up, down):  8.972E-06 0.000E+00

     total cpu time spent up to now is       80.0 secs

     total energy              =    -660.96984707 Ry
     estimated scf accuracy    <       0.51046190 Ry

     iteration #  4     ecut=    50.00 Ry     beta= 0.70
     Davidson diagonalization with overlap
     ethr =  3.11E-04,  avg # of iterations =  4.0

     negative rho (up, down):  6.583E-06 0.000E+00

     total cpu time spent up to now is       97.0 secs

     total energy              =    -660.95928963 Ry
     estimated scf accuracy    <       0.25594645 Ry

     iteration #  5     ecut=    50.00 Ry     beta= 0.70
     Davidson diagonalization with overlap
     ethr =  1.56E-04,  avg # of iterations =  4.0

     negative rho (up, down):  1.580E-06 0.000E+00

     total cpu time spent up to now is      111.6 secs

     total energy              =    -660.98493509 Ry
     estimated scf accuracy    <       0.13942872 Ry

     iteration #  6     ecut=    50.00 Ry     beta= 0.70
     Davidson diagonalization with overlap
     ethr =  8.50E-05,  avg # of iterations =  6.0

     negative rho (up, down):  1.384E-03 0.000E+00

     total cpu time spent up to now is      125.1 secs

     total energy              =    -660.98153319 Ry
     estimated scf accuracy    <       0.08849257 Ry

     iteration #  7     ecut=    50.00 Ry     beta= 0.70
     Davidson diagonalization with overlap
     ethr =  5.40E-05,  avg # of iterations =  2.0

     negative rho (up, down):  3.959E-02 0.000E+00

     total cpu time spent up to now is      137.6 secs

     total energy              =    -660.97448221 Ry
     estimated scf accuracy    <       0.04699309 Ry

     iteration #  8     ecut=    50.00 Ry     beta= 0.70
     Davidson diagonalization with overlap
     ethr =  2.87E-05,  avg # of iterations =  6.0

     negative rho (up, down):  3.600E-02 0.000E+00

     total cpu time spent up to now is      151.5 secs

     total energy              =    -660.97997032 Ry
     estimated scf accuracy    <       0.02739944 Ry

     iteration #  9     ecut=    50.00 Ry     beta= 0.70
     Davidson diagonalization with overlap
     ethr =  1.67E-05,  avg # of iterations =  4.0

     negative rho (up, down):  1.914E-01 0.000E+00

     total cpu time spent up to now is      163.0 secs

     total energy              =    -660.97617569 Ry
     estimated scf accuracy    <       0.01776635 Ry

     iteration # 10     ecut=    50.00 Ry     beta= 0.70
     Davidson diagonalization with overlap
     ethr =  1.08E-05,  avg # of iterations =  5.0

     negative rho (up, down):  1.419E-01 0.000E+00

     total cpu time spent up to now is      174.8 secs

     total energy              =    -660.97921347 Ry
     estimated scf accuracy    <       0.00796306 Ry

     iteration # 11     ecut=    50.00 Ry     beta= 0.70
     Davidson diagonalization with overlap
     ethr =  4.86E-06,  avg # of iterations =  5.0

     negative rho (up, down):  9.448E-02 0.000E+00

     total cpu time spent up to now is      184.9 secs

     total energy              =    -660.97872346 Ry
     estimated scf accuracy    <       0.00401747 Ry

     iteration # 12     ecut=    50.00 Ry     beta= 0.70
     Davidson diagonalization with overlap
     ethr =  2.45E-06,  avg # of iterations =  8.0

     negative rho (up, down):  7.157E-02 0.000E+00

     total cpu time spent up to now is      197.0 secs

     total energy              =    -660.97976701 Ry
     estimated scf accuracy    <       0.00346722 Ry

     iteration # 13     ecut=    50.00 Ry     beta= 0.70
     Davidson diagonalization with overlap
     ethr =  2.11E-06,  avg # of iterations =  2.0

     negative rho (up, down):  4.686E-02 0.000E+00

     total cpu time spent up to now is      207.0 secs

     total energy              =    -660.97904136 Ry
     estimated scf accuracy    <       0.00205012 Ry

     iteration # 14     ecut=    50.00 Ry     beta= 0.70
     Davidson diagonalization with overlap
     ethr =  1.25E-06,  avg # of iterations =  9.0

     negative rho (up, down):  4.405E-02 0.000E+00

     total cpu time spent up to now is      218.3 secs

     total energy              =    -660.97990514 Ry
     estimated scf accuracy    <       0.00198384 Ry

     iteration # 15     ecut=    50.00 Ry     beta= 0.70
     Davidson diagonalization with overlap
     ethr =  1.21E-06,  avg # of iterations =  1.0

     negative rho (up, down):  3.606E-02 0.000E+00

     total cpu time spent up to now is      229.4 secs

     total energy              =    -660.97929608 Ry
     estimated scf accuracy    <       0.00133027 Ry

     iteration # 16     ecut=    50.00 Ry     beta= 0.70
     Davidson diagonalization with overlap
     ethr =  8.11E-07,  avg # of iterations = 11.0

     negative rho (up, down):  1.919E-02 0.000E+00

     total cpu time spent up to now is      239.9 secs

     total energy              =    -660.97988862 Ry
     estimated scf accuracy    <       0.00125309 Ry

     iteration # 17     ecut=    50.00 Ry     beta= 0.70
     Davidson diagonalization with overlap
     ethr =  7.64E-07,  avg # of iterations =  1.0

     negative rho (up, down):  1.389E-02 0.000E+00

     total cpu time spent up to now is      250.5 secs

     total energy              =    -660.97968564 Ry
     estimated scf accuracy    <       0.00083951 Ry

     iteration # 18     ecut=    50.00 Ry     beta= 0.70
     Davidson diagonalization with overlap
     ethr =  5.12E-07,  avg # of iterations =  6.0

     negative rho (up, down):  1.265E-02 0.000E+00

     total cpu time spent up to now is      262.0 secs

     total energy              =    -660.97982941 Ry
     estimated scf accuracy    <       0.00005155 Ry

     iteration # 19     ecut=    50.00 Ry     beta= 0.70
     Davidson diagonalization with overlap
     ethr =  3.14E-08,  avg # of iterations =  7.0

     negative rho (up, down):  1.305E-02 0.000E+00

     total cpu time spent up to now is      277.2 secs

     total energy              =    -660.97986033 Ry
     estimated scf accuracy    <       0.00003165 Ry

     iteration # 20     ecut=    50.00 Ry     beta= 0.70
     Davidson diagonalization with overlap
     ethr =  1.93E-08,  avg # of iterations =  7.0

     negative rho (up, down):  1.201E-02 0.000E+00

     total cpu time spent up to now is      291.5 secs

     total energy              =    -660.97986946 Ry
     estimated scf accuracy    <       0.00001974 Ry

     iteration # 21     ecut=    50.00 Ry     beta= 0.70
     Davidson diagonalization with overlap
     ethr =  1.20E-08,  avg # of iterations =  2.0

     negative rho (up, down):  1.177E-02 0.000E+00

     total cpu time spent up to now is      305.0 secs

     total energy              =    -660.97986505 Ry
     estimated scf accuracy    <       0.00001381 Ry

     iteration # 22     ecut=    50.00 Ry     beta= 0.70
     Davidson diagonalization with overlap
     ethr =  8.42E-09,  avg # of iterations =  6.0

     negative rho (up, down):  1.216E-02 0.000E+00

     total cpu time spent up to now is      320.6 secs

     total energy              =    -660.97986815 Ry
     estimated scf accuracy    <       0.00000235 Ry

     iteration # 23     ecut=    50.00 Ry     beta= 0.70
     Davidson diagonalization with overlap
     ethr =  1.43E-09,  avg # of iterations =  5.0

     negative rho (up, down):  1.235E-02 0.000E+00

     total cpu time spent up to now is      339.1 secs

     total energy              =    -660.97986871 Ry
     estimated scf accuracy    <       0.00000176 Ry

     iteration # 24     ecut=    50.00 Ry     beta= 0.70
     Davidson diagonalization with overlap
     ethr =  1.08E-09,  avg # of iterations =  6.0

     negative rho (up, down):  1.212E-02 0.000E+00

     total cpu time spent up to now is      352.5 secs

     total energy              =    -660.97986878 Ry
     estimated scf accuracy    <       0.00000067 Ry

     iteration # 25     ecut=    50.00 Ry     beta= 0.70
     Davidson diagonalization with overlap
     ethr =  4.10E-10,  avg # of iterations =  7.0

     negative rho (up, down):  1.210E-02 0.000E+00

     total cpu time spent up to now is      367.8 secs

     total energy              =    -660.97986902 Ry
     estimated scf accuracy    <       0.00000071 Ry

     iteration # 26     ecut=    50.00 Ry     beta= 0.70
     Davidson diagonalization with overlap
     ethr =  4.10E-10,  avg # of iterations =  6.0

     negative rho (up, down):  1.213E-02 0.000E+00

     total cpu time spent up to now is      382.3 secs

     total energy              =    -660.97986912 Ry
     estimated scf accuracy    <       0.00000015 Ry

     iteration # 27     ecut=    50.00 Ry     beta= 0.70
     Davidson diagonalization with overlap
     ethr =  9.40E-11,  avg # of iterations =  9.0

     negative rho (up, down):  1.211E-02 0.000E+00

     total cpu time spent up to now is      408.3 secs

     total energy              =    -660.97986911 Ry
     estimated scf accuracy    <       0.00000019 Ry

     iteration # 28     ecut=    50.00 Ry     beta= 0.70
     Davidson diagonalization with overlap
     ethr =  9.40E-11,  avg # of iterations =  2.0

     negative rho (up, down):  1.206E-02 0.000E+00

     total cpu time spent up to now is      410.3 secs

     End of self-consistent calculation

          k = 0.0000 0.0000 0.0000 (231429 PWs)   bands (ev):

   -32.8288 -32.7096 -30.6224 -30.5906 -30.5430 -30.4727 -25.7729 -24.0450
   -22.2621 -22.1773 -21.5995 -20.5389 -20.2630 -19.4200 -19.2338 -19.1367
   -19.0062 -18.9027 -17.9353 -17.5928 -16.7851 -16.2405 -15.9734 -15.8122
   -15.6029 -15.4716 -14.9225 -14.4742 -14.4129 -14.3692 -14.3539 -14.2573
   -14.2241 -14.1854 -13.6127 -13.2513 -12.8294 -12.5807 -12.0649 -11.7490
   -11.7404 -11.5736 -11.5078 -11.4155 -11.1247 -11.0561 -11.0461 -11.0121
   -10.9937 -10.8969 -10.8448 -10.6364 -10.5868 -10.4661 -10.3800 -10.3131
   -10.2406 -10.1484  -9.9715  -9.9644  -9.9420  -9.7574  -9.5470  -9.5373
    -9.5286  -9.4342  -9.3550  -9.0815  -8.9589  -8.9309  -8.8432  -8.7297
    -8.4725  -8.0150  -7.5409  -7.0999  -6.9979  -6.8707  -6.7830  -6.3447
    -6.0571  -5.8454

     highest occupied level (ev):    -5.8454

!    total energy              =    -660.97986910 Ry
     estimated scf accuracy    <       0.00000010 Ry

     The total energy is the sum of the following terms:
     one-electron contribution =   -6386.43395576 Ry
     hartree contribution      =    3214.66952067 Ry
     xc contribution           =    -191.53366434 Ry
     ewald contribution        =    2702.43728395 Ry
     DFT-D3 Dispersion         =      -0.11905364 Ry

     convergence has been achieved in  28 iterations

     negative rho (up, down):  1.206E-02 0.000E+00

     Forces acting on atoms (cartesian axes, Ry/au):

     atom    1 type  1   force =    -0.00779072    0.00289312   -0.00406655
     atom    2 type  2   force =    -0.00124985   -0.00252189    0.00148277
     atom    3 type  3   force =    -0.00585707    0.00585185    0.00079070
     atom    4 type  4   force =     0.00200930   -0.00133480   -0.00572965
     atom    5 type  3   force =     0.00001580   -0.00176587    0.00413098
     atom    6 type  4   force =    -0.00396565    0.00384042   -0.00001917
     atom    7 type  3   force =    -0.00043862   -0.00001623    0.00194531
     atom    8 type  3   force =     0.01018541    0.00152040    0.00795222
     atom    9 type  4   force =     0.00132841   -0.00910062   -0.00191806
     atom   10 type  3   force =    -0.00533406    0.00260260   -0.00392110
     atom   11 type  4   force =    -0.00389802   -0.00276656    0.00087618
     atom   12 type  3   force =    -0.00189292   -0.00677672   -0.00361818
     atom   13 type  3   force =    -0.00839245    0.00625046    0.00554671
     atom   14 type  4   force =     0.00035442    0.00514144    0.00165067
     atom   15 type  3   force =     0.00854962   -0.00923475   -0.00865668
     atom   16 type  4   force =     0.00541346   -0.00154039    0.00265620
     atom   17 type  3   force =     0.00134615    0.00141088   -0.00051962
     atom   18 type  3   force =     0.00042430    0.00086524    0.00347170
     atom   19 type  3   force =     0.00051972    0.00312175    0.00235258
     atom   20 type  4   force =     0.00202725   -0.00473467   -0.00134212
     atom   21 type  3   force =     0.00124421    0.00146643   -0.00286632
     atom   22 type  4   force =     0.00319287   -0.00318259    0.00030102
     atom   23 type  3   force =    -0.00657590   -0.00195183   -0.00187665
     atom   24 type  3   force =     0.00341765   -0.00088328   -0.00492852
     atom   25 type  4   force =    -0.00511777   -0.00080412    0.00113135
     atom   26 type  3   force =    -0.00289159    0.00278354    0.00248209
     atom   27 type  4   force =    -0.00254735   -0.00127678    0.00012048
     atom   28 type  3   force =    -0.00440635    0.00483827   -0.00090334
     atom   29 type  4   force =     0.00422316    0.00370230   -0.00584943
     atom   30 type  3   force =     0.00309277    0.00507826    0.00205122
     atom   31 type  3   force =     0.00138525    0.00383842    0.00530141
     atom   32 type  4   force =     0.00367764    0.00475697    0.00005347
     atom   33 type  3   force =    -0.00076773   -0.00384861   -0.00413174
     atom   34 type  4   force =     0.00430592   -0.00061711    0.01176888
     atom   35 type  3   force =    -0.00457753   -0.00481737   -0.00323356
     atom   36 type  3   force =    -0.00333410   -0.00731001    0.00449564
     atom   37 type  4   force =    -0.00652697   -0.00382772    0.01391433
     atom   38 type  3   force =     0.00095214    0.00217271    0.00229460
     atom   39 type  4   force =    -0.00159698    0.00073880    0.00146274
     atom   40 type  3   force =     0.00428242   -0.00013876    0.00008094
     atom   41 type  3   force =    -0.00024663    0.00651768   -0.00108287
     atom   42 type  5   force =     0.00247394   -0.00314420    0.00260793
     atom   43 type  5   force =     0.00241319   -0.00658232   -0.00329388
     atom   44 type  5   force =     0.00270817   -0.00084892   -0.00310843
     atom   45 type  5   force =     0.01246465    0.00075384   -0.00467053
     atom   46 type  5   force =    -0.00516090    0.00389109    0.00192776
     atom   47 type  5   force =     0.00056133    0.00498969   -0.01711353
     The Martyna-Tuckerman correction term to forces
     atom    1 type  1   force =     0.00208907    0.00052856   -0.00000637
     atom    2 type  2   force =     0.00136037    0.00003125   -0.00004831
     atom    3 type  3   force =     0.00079566    0.00096343    0.00010820
     atom    4 type  4   force =     0.00023171    0.00009410   -0.00303925
     atom    5 type  3   force =     0.00069308    0.00228707   -0.02850601
     atom    6 type  4   force =     0.00023822    0.00065911    0.00428911
     atom    7 type  3   force =     0.00046821   -0.01031171    0.00287966
     atom    8 type  3   force =     0.00009744   -0.00404950   -0.00287003
     atom    9 type  4   force =    -0.00002502   -0.00086483    0.00018360
     atom   10 type  3   force =     0.00045409   -0.01223424    0.00712267
     atom   11 type  4   force =     0.00005271   -0.00095041   -0.00130668
     atom   12 type  3   force =     0.00077418    0.00012669   -0.01118970
     atom   13 type  3   force =     0.00099104    0.00012745   -0.00011302
     atom   14 type  4   force =     0.00025052   -0.00008107    0.00000816
     atom   15 type  3   force =     0.00111592    0.00016949   -0.00005829
     atom   16 type  4   force =     0.00027167    0.00003290   -0.00002629
     atom   17 type  3   force =     0.00128807    0.00023756   -0.00003631
     atom   18 type  3   force =     0.00132763    0.00018958   -0.00007087
     atom   19 type  3   force =     0.00153548    0.00016977   -0.00007887
     atom   20 type  4   force =     0.00044877    0.00006009   -0.00001173
     atom   21 type  3   force =     0.00148342    0.00007209   -0.00012432
     atom   22 type  4   force =     0.00041683   -0.00000517   -0.00003720
     atom   23 type  3   force =     0.00121587    0.00009176   -0.00011859
     atom   24 type  3   force =     0.00111688    0.00017473   -0.00009229
     atom   25 type  4   force =     0.00024767    0.00005727   -0.00001634
     atom   26 type  3   force =     0.00118588    0.00018239   -0.00009245
     atom   27 type  4   force =     0.00028544    0.00005012   -0.00002704
     atom   28 type  3   force =     0.00090776    0.00003454    0.00421615
     atom   29 type  4   force =     0.00022208    0.00000615    0.00269023
     atom   30 type  3   force =     0.00064785   -0.00102638    0.00128561
     atom   31 type  3   force =     0.00058385   -0.00097508    0.00456351
     atom   32 type  4   force =     0.00020868   -0.00003583    0.00085915
     atom   33 type  3   force =     0.00012077    0.00568032    0.01842413
     atom   34 type  4   force =     0.00001379   -0.00032433    0.00630132
     atom   35 type  3   force =     0.00039685    0.00469830    0.00867488
     atom   36 type  3   force =     0.00049456   -0.00103814    0.01004905
     atom   37 type  4   force =     0.00017764   -0.00054244    0.00277854
     atom   38 type  3   force =     0.00038646   -0.00270824    0.00453437
     atom   39 type  4   force =     0.00014431   -0.00068387   -0.00109016
     atom   40 type  3   force =     0.00059037   -0.00264021   -0.01225587
     atom   41 type  3   force =     0.00034109   -0.00284541   -0.00582479
     atom   42 type  5   force =     0.00179862   -0.02019598   -0.00500357
     atom   43 type  5   force =     0.00093588   -0.02425848    0.00263602
     atom   44 type  5   force =     0.00095117   -0.00183776   -0.01098368
     atom   45 type  5   force =     0.00108237    0.04157617   -0.00289274
     atom   46 type  5   force =    -0.00007818    0.03310047    0.00361272
     atom   47 type  5   force =     0.00074358    0.00596248    0.00129376
     The non-local contrib.  to forces
     atom    1 type  1   force =    -2.11694838    1.30568321   -0.40766452
     atom    2 type  2   force =    -0.97062599   -1.16573067    0.21667117
     atom    3 type  3   force =     0.00626815    0.00251195   -0.00228763
     atom    4 type  4   force =     0.03049298   -0.06020096   -0.03717231
     atom    5 type  3   force =     0.03069852   -0.04958875    0.00371914
     atom    6 type  4   force =     0.06751725   -0.03545852    0.02418511
     atom    7 type  3   force =    -0.06915131   -0.04323580   -0.14866755
     atom    8 type  3   force =    -0.04480395    0.03028839   -0.00128823
     atom    9 type  4   force =    -0.03093939    0.06271021    0.03935899
     atom   10 type  3   force =    -0.02683659    0.00258993   -0.02511154
     atom   11 type  4   force =    -0.06721156    0.03257026   -0.02262344
     atom   12 type  3   force =     0.01867616    0.00577315    0.04265596
     atom   13 type  3   force =    -0.06827560   -0.02814236   -0.08375321
     atom   14 type  4   force =    -0.06472879    0.04000407   -0.01836205
     atom   15 type  3   force =     0.00226665    0.03309581    0.02229495
     atom   16 type  4   force =     0.06177489   -0.04301218    0.01216060
     atom   17 type  3   force =     0.08952429   -0.06211456    0.01332745
     atom   18 type  3   force =    -0.01466416   -0.00275496   -0.01241228
     atom   19 type  3   force =    -0.05532681    0.02266349   -0.00095258
     atom   20 type  4   force =    -0.07377845    0.02912942    0.01039371
     atom   21 type  3   force =    -0.05565342   -0.00954141    0.02879391
     atom   22 type  4   force =    -0.05870857   -0.03585442   -0.03773171
     atom   23 type  3   force =    -0.04176581    0.24416148    0.12588055
     atom   24 type  3   force =     0.02794467    0.01864363    0.00408541
     atom   25 type  4   force =     0.07160303   -0.03080690   -0.00679347
     atom   26 type  3   force =    -0.01350946   -0.01341400    0.01459183
     atom   27 type  4   force =     0.06037888    0.02889465    0.04004707
     atom   28 type  3   force =     0.09774989    0.07254847   -0.05481856
     atom   29 type  4   force =     0.04135873    0.05952499   -0.01379274
     atom   30 type  3   force =    -0.00886797   -0.04848358   -0.02290591
     atom   31 type  3   force =    -0.04007366   -0.01693565    0.04912282
     atom   32 type  4   force =    -0.05503393   -0.00382741    0.05760374
     atom   33 type  3   force =    -0.05264085   -0.03551049    0.03057218
     atom   34 type  4   force =    -0.04188271   -0.06711295    0.00867632
     atom   35 type  3   force =    -0.03192276    0.11242592    0.11731538
     atom   36 type  3   force =     0.03764257    0.02554310   -0.00873326
     atom   37 type  4   force =     0.06237944    0.00423124   -0.05131518
     atom   38 type  3   force =     0.00299858    0.01351344    0.00081369
     atom   39 type  4   force =     0.04451104    0.06355240   -0.00300251
     atom   40 type  3   force =    -0.27840434   -0.21821885   -0.54232981
     atom   41 type  3   force =    -0.11981930    0.45509044    0.45465188
     atom   42 type  5   force =     2.83061117   -0.75946586    0.29512400
     atom   43 type  5   force =    -1.36626282   -0.96767494    2.36898398
     atom   44 type  5   force =     0.01058129    2.92042498    0.19236797
     atom   45 type  5   force =     2.67648094   -1.05623581    0.12142209
     atom   46 type  5   force =    -1.72328593   -2.38322239    0.20863753
     atom   47 type  5   force =    -0.33018181    0.99239231   -2.67335106
     The ionic contribution  to forces
     atom    1 type  1   force =    15.65959317  -10.43966588    3.21199988
     atom    2 type  2   force =     5.96174156    6.44772927   -1.37383211
     atom    3 type  3   force =    -4.01942589    5.16776007    1.65419430
     atom    4 type  4   force =    -1.97495286    2.62930612    0.95887866
     atom    5 type  3   force =    -5.59896619    5.14236028   -0.63906260
     atom    6 type  4   force =    -3.09505103    2.27853019   -0.61227637
     atom    7 type  3   force =    -0.14429548   -0.70997474    0.18347905
     atom    8 type  3   force =     5.35002228   -6.73364025   -1.24010784
     atom    9 type  4   force =     2.27430662   -3.19878099   -1.23763455
     atom   10 type  3   force =     6.57264929   -5.53359890    1.20015838
     atom   11 type  4   force =     3.18597241   -2.17817199    0.62795969
     atom   12 type  3   force =     1.62928109   -0.27124091    1.36975111
     atom   13 type  3   force =     3.20484321   -3.13258581    0.04538935
     atom   14 type  4   force =     2.81208719   -2.24115685    0.41960585
     atom   15 type  3   force =    -3.02128168    1.31830788   -0.55167241
     atom   16 type  4   force =    -2.57027995    1.65627583   -0.65340112
     atom   17 type  3   force =    -1.28191387   -0.00746050   -0.46187708
     atom   18 type  3   force =     0.76779673   -0.91324353   -0.67548708
     atom   19 type  3   force =     8.11609612   -0.75587148    0.94617345
     atom   20 type  4   force =     3.82388359   -0.66554369    0.12798537
     atom   21 type  3   force =     7.85086614    2.12064849    2.85039291
     atom   22 type  4   force =     3.34250792    1.29401792    1.49792634
     atom   23 type  3   force =     0.98843709    0.96747427    0.26678290
     atom   24 type  3   force =    -7.13757926    1.25007684   -0.72109681
     atom   25 type  4   force =    -3.55720404    0.99231071   -0.28424690
     atom   26 type  3   force =    -6.39882989   -0.98947851   -2.30555449
     atom   27 type  4   force =    -3.18839269   -0.72516230   -1.24279900
     atom   28 type  3   force =    -3.86939812   -2.82181983    2.83209858
     atom   29 type  4   force =    -2.09004528   -2.67697341    1.08571342
     atom   30 type  3   force =    -0.54781505   -1.36137245   -0.75682009
     atom   31 type  3   force =     5.29424304    3.44122068   -4.12830917
     atom   32 type  4   force =     2.63574699    1.31989320   -2.20269090
     atom   33 type  3   force =     5.75825665    5.49347932   -2.48895351
     atom   34 type  4   force =     2.47219692    2.98950325   -1.03308929
     atom   35 type  3   force =     0.46954319    0.52953073   -0.00054157
     atom   36 type  3   force =    -6.26597656   -3.41499245    3.82326656
     atom   37 type  4   force =    -3.21905666   -1.10515728    2.16118129
     atom   38 type  3   force =    -5.68523218   -5.60630994    2.01642088
     atom   39 type  4   force =    -2.50467843   -2.78614582    0.71518056
     atom   40 type  3   force =    -0.12640489   -0.50696936   -0.06631941
     atom   41 type  3   force =     0.23045506    0.62460184    0.22995760
     atom   42 type  5   force =   -23.04630960    3.69726924   -5.47551378
     atom   43 type  5   force =     9.14954278    5.88004343  -21.98306414
     atom   44 type  5   force =    -1.88468255  -24.61436331   -4.50380026
     atom   45 type  5   force =   -21.41719272   11.52751545    1.41205754
     atom   46 type  5   force =    12.51888717   21.08063047    1.25249266
     atom   47 type  5   force =     2.57600869   -4.45880531   23.74910417
     The local contribution  to forces
     atom    1 type  1   force =   -13.56708028    9.14515303   -2.81139913
     atom    2 type  2   force =    -5.00598679   -5.30215890    1.15967530
     atom    3 type  3   force =     4.00592167   -5.16386612   -1.65034107
     atom    4 type  4   force =     1.94592848   -2.57029900   -0.92446430
     atom    5 type  3   force =     5.56658586   -5.09641188    0.66707511
     atom    6 type  4   force =     3.02302631   -2.23964033    0.58374439
     atom    7 type  3   force =     0.20984990    0.76165680   -0.04040817
     atom    8 type  3   force =    -5.29511979    6.70761443    1.25143113
     atom    9 type  4   force =    -2.24177539    3.12752568    1.19608536
     atom   10 type  3   force =    -6.55047962    5.54471778   -1.18559833
     atom   11 type  4   force =    -3.12243527    2.14353112   -0.60317291
     atom   12 type  3   force =    -1.64954166    0.25942979   -1.40278977
     atom   13 type  3   force =    -3.14650135    3.16401177    0.04063234
     atom   14 type  4   force =    -2.74704854    2.20622560   -0.39956235
     atom   15 type  3   force =     3.02560120   -1.35796940    0.52323391
     atom   16 type  4   force =     2.51347921   -1.61475017    0.64383977
     atom   17 type  3   force =     1.18812505    0.07294576    0.44715916
     atom   18 type  3   force =    -0.75375360    0.91519370    0.68998542
     atom   19 type  3   force =    -8.06096125    0.73550565   -0.94317357
     atom   20 type  4   force =    -3.74811867    0.63160318   -0.13966248
     atom   21 type  3   force =    -7.79457070   -2.10888386   -2.88016540
     atom   22 type  4   force =    -3.28060485   -1.26125290   -1.45975675
     atom   23 type  3   force =    -0.95547582   -1.20795783   -0.39116663
     atom   24 type  3   force =     7.11038972   -1.26889338    0.71257815
     atom   25 type  4   force =     3.47983989   -0.96235287    0.29199537
     atom   26 type  3   force =     6.40650048    1.00459209    2.29277139
     atom   27 type  4   force =     3.12476473    0.69498386    1.20287628
     atom   28 type  3   force =     3.76425691    2.75514924   -2.77985165
     atom   29 type  4   force =     2.05252630    2.62098299   -1.08029407
     atom   30 type  3   force =     0.55926677    1.41394220    0.77883152
     atom   31 type  3   force =    -5.25282330   -3.41916779    4.07956173
     atom   32 type  4   force =    -2.57698255   -1.31099318    2.14412482
     atom   33 type  3   force =    -5.70594242   -5.46653588    2.43644303
     atom   34 type  4   force =    -2.42574530   -2.92240547    1.02974256
     atom   35 type  3   force =    -0.44313384   -0.64743021   -0.12484943
     atom   36 type  3   force =     6.22374868    3.38342110   -3.81883634
     atom   37 type  4   force =     3.14965197    1.09748633   -2.09854591
     atom   38 type  3   force =     5.68146744    5.59596219   -2.01930213
     atom   39 type  4   force =     2.45812947    2.72377692   -0.70949311
     atom   40 type  3   force =     0.40218053    0.72273074    0.60859657
     atom   41 type  3   force =    -0.11409228   -1.05996694   -0.66916982
     atom   42 type  5   force =    20.22523379   -2.92329878    5.18866746
     atom   43 type  5   force =    -7.78624883   -4.89788446   19.61524212
     atom   44 type  5   force =     1.87575393   21.70402941    4.31962756
     atom   45 type  5   force =    18.76060391  -10.51522475   -1.53468701
     atom   46 type  5   force =   -10.80623329  -18.73404455   -1.46194305
     atom   47 type  5   force =    -2.24705972    3.46884688  -21.10247566
     The core correction contribution to forces
     atom    1 type  1   force =     0.01489063   -0.00914019    0.00299044
     atom    2 type  2   force =     0.01247187    0.01776856   -0.00108091
     atom    3 type  3   force =     0.00041299   -0.00149351   -0.00103947
     atom    4 type  4   force =     0.00000000    0.00000000    0.00000000
     atom    5 type  3   force =     0.00071226   -0.00019746    0.00083268
     atom    6 type  4   force =     0.00000000    0.00000000    0.00000000
     atom    7 type  3   force =     0.00260393    0.00173594    0.00442866
     atom    8 type  3   force =     0.00022487    0.00102274    0.00072180
     atom    9 type  4   force =     0.00000000    0.00000000    0.00000000
     atom   10 type  3   force =    -0.00091458    0.00093510   -0.00050902
     atom   11 type  4   force =     0.00000000    0.00000000    0.00000000
     atom   12 type  3   force =    -0.00104058   -0.00102005   -0.00217874
     atom   13 type  3   force =     0.00079239    0.00259142    0.00335444
     atom   14 type  4   force =     0.00000000    0.00000000    0.00000000
     atom   15 type  3   force =     0.00093327   -0.00294886   -0.00248840
     atom   16 type  4   force =     0.00000000    0.00000000    0.00000000
     atom   17 type  3   force =     0.00444556   -0.00242229    0.00079258
     atom   18 type  3   force =    -0.00018207    0.00148434    0.00152016
     atom   19 type  3   force =    -0.00052591    0.00067084    0.00042767
     atom   20 type  4   force =     0.00000000    0.00000000    0.00000000
     atom   21 type  3   force =    -0.00051697   -0.00068355   -0.00171114
     atom   22 type  4   force =     0.00000000    0.00000000    0.00000000
     atom   23 type  3   force =     0.00097945   -0.00564591   -0.00320584
     atom   24 type  3   force =     0.00131518   -0.00080644   -0.00055748
     atom   25 type  4   force =     0.00000000    0.00000000    0.00000000
     atom   26 type  3   force =     0.00152476    0.00099135    0.00077849
     atom   27 type  4   force =     0.00000000    0.00000000    0.00000000
     atom   28 type  3   force =     0.00206005   -0.00129753   -0.00260974
     atom   29 type  4   force =     0.00000000    0.00000000    0.00000000
     atom   30 type  3   force =    -0.00019589    0.00213436    0.00178555
     atom   31 type  3   force =    -0.00041092   -0.00008052    0.00030552
     atom   32 type  4   force =     0.00000000    0.00000000    0.00000000
     atom   33 type  3   force =    -0.00030834   -0.00068821   -0.00073948
     atom   34 type  4   force =     0.00000000    0.00000000    0.00000000
     atom   35 type  3   force =     0.00049157   -0.00382516   -0.00364066
     atom   36 type  3   force =     0.00049305   -0.00034060   -0.00107962
     atom   37 type  4   force =     0.00000000    0.00000000    0.00000000
     atom   38 type  3   force =     0.00108516    0.00150227   -0.00008147
     atom   39 type  4   force =     0.00000000    0.00000000    0.00000000
     atom   40 type  3   force =     0.00605167    0.00471500    0.01184928
     atom   41 type  3   force =     0.00278196   -0.00996835   -0.01031695
     atom   42 type  5   force =    -0.00921963    0.00245517   -0.00098869
     atom   43 type  5   force =     0.00443103    0.00314436   -0.00766379
     atom   44 type  5   force =    -0.00004955   -0.00950144   -0.00063844
     atom   45 type  5   force =    -0.00876599    0.00345563   -0.00038071
     atom   46 type  5   force =     0.00563841    0.00782252   -0.00066998
     atom   47 type  5   force =     0.00107308   -0.00325603    0.00876521
     The Hubbard contrib.    to forces
     atom    1 type  1   force =     0.00000000    0.00000000    0.00000000
     atom    2 type  2   force =     0.00000000    0.00000000    0.00000000
     atom    3 type  3   force =     0.00000000    0.00000000    0.00000000
     atom    4 type  4   force =     0.00000000    0.00000000    0.00000000
     atom    5 type  3   force =     0.00000000    0.00000000    0.00000000
     atom    6 type  4   force =     0.00000000    0.00000000    0.00000000
     atom    7 type  3   force =     0.00000000    0.00000000    0.00000000
     atom    8 type  3   force =     0.00000000    0.00000000    0.00000000
     atom    9 type  4   force =     0.00000000    0.00000000    0.00000000
     atom   10 type  3   force =     0.00000000    0.00000000    0.00000000
     atom   11 type  4   force =     0.00000000    0.00000000    0.00000000
     atom   12 type  3   force =     0.00000000    0.00000000    0.00000000
     atom   13 type  3   force =     0.00000000    0.00000000    0.00000000
     atom   14 type  4   force =     0.00000000    0.00000000    0.00000000
     atom   15 type  3   force =     0.00000000    0.00000000    0.00000000
     atom   16 type  4   force =     0.00000000    0.00000000    0.00000000
     atom   17 type  3   force =     0.00000000    0.00000000    0.00000000
     atom   18 type  3   force =     0.00000000    0.00000000    0.00000000
     atom   19 type  3   force =     0.00000000    0.00000000    0.00000000
     atom   20 type  4   force =     0.00000000    0.00000000    0.00000000
     atom   21 type  3   force =     0.00000000    0.00000000    0.00000000
     atom   22 type  4   force =     0.00000000    0.00000000    0.00000000
     atom   23 type  3   force =     0.00000000    0.00000000    0.00000000
     atom   24 type  3   force =     0.00000000    0.00000000    0.00000000
     atom   25 type  4   force =     0.00000000    0.00000000    0.00000000
     atom   26 type  3   force =     0.00000000    0.00000000    0.00000000
     atom   27 type  4   force =     0.00000000    0.00000000    0.00000000
     atom   28 type  3   force =     0.00000000    0.00000000    0.00000000
     atom   29 type  4   force =     0.00000000    0.00000000    0.00000000
     atom   30 type  3   force =     0.00000000    0.00000000    0.00000000
     atom   31 type  3   force =     0.00000000    0.00000000    0.00000000
     atom   32 type  4   force =     0.00000000    0.00000000    0.00000000
     atom   33 type  3   force =     0.00000000    0.00000000    0.00000000
     atom   34 type  4   force =     0.00000000    0.00000000    0.00000000
     atom   35 type  3   force =     0.00000000    0.00000000    0.00000000
     atom   36 type  3   force =     0.00000000    0.00000000    0.00000000
     atom   37 type  4   force =     0.00000000    0.00000000    0.00000000
     atom   38 type  3   force =     0.00000000    0.00000000    0.00000000
     atom   39 type  4   force =     0.00000000    0.00000000    0.00000000
     atom   40 type  3   force =     0.00000000    0.00000000    0.00000000
     atom   41 type  3   force =     0.00000000    0.00000000    0.00000000
     atom   42 type  5   force =     0.00000000    0.00000000    0.00000000
     atom   43 type  5   force =     0.00000000    0.00000000    0.00000000
     atom   44 type  5   force =     0.00000000    0.00000000    0.00000000
     atom   45 type  5   force =     0.00000000    0.00000000    0.00000000
     atom   46 type  5   force =     0.00000000    0.00000000    0.00000000
     atom   47 type  5   force =     0.00000000    0.00000000    0.00000000
     The SCF correction term to forces
     atom    1 type  1   force =     0.00014695   -0.00000144    0.00010723
     atom    2 type  2   force =    -0.00004912   -0.00006719    0.00003602
     atom    3 type  3   force =    -0.00007859    0.00002480   -0.00003673
     atom    4 type  4   force =    -0.00000708    0.00000344   -0.00000137
     atom    5 type  3   force =     0.00001025   -0.00002236    0.00000622
     atom    6 type  4   force =     0.00000414   -0.00000032    0.00000624
     atom    7 type  3   force =    -0.00001897    0.00002030    0.00001980
     atom    8 type  3   force =    -0.00005193    0.00003261   -0.00000317
     atom    9 type  4   force =    -0.00000078    0.00000280    0.00000372
     atom   10 type  3   force =     0.00000467   -0.00004475   -0.00002982
     atom   11 type  4   force =     0.00000787   -0.00000598    0.00000262
     atom   12 type  3   force =    -0.00003725    0.00000638   -0.00002038
     atom   13 type  3   force =     0.00006324    0.00003943    0.00009924
     atom   14 type  4   force =     0.00002389    0.00000435    0.00002560
     atom   15 type  3   force =     0.00003160    0.00004618    0.00007650
     atom   16 type  4   force =    -0.00000214    0.00001453    0.00001334
     atom   17 type  3   force =     0.00017383   -0.00004421    0.00009355
     atom   18 type  3   force =     0.00005074    0.00005656    0.00008768
     atom   19 type  3   force =     0.00001575    0.00005876    0.00006986
     atom   20 type  4   force =    -0.00001382    0.00000546    0.00000682
     atom   21 type  3   force =     0.00002405   -0.00005265   -0.00003143
     atom   22 type  4   force =    -0.00001445   -0.00001950   -0.00001683
     atom   23 type  3   force =     0.00005114   -0.00011286   -0.00006066
     atom   24 type  3   force =     0.00003963   -0.00002659    0.00000056
     atom   25 type  4   force =     0.00001822   -0.00000752    0.00000150
     atom   26 type  3   force =     0.00001836    0.00006345    0.00007533
     atom   27 type  4   force =     0.00000870    0.00001217    0.00001608
     atom   28 type  3   force =    -0.00004712   -0.00003559    0.00003284
     atom   29 type  4   force =     0.00001070    0.00000915   -0.00000522
     atom   30 type  3   force =    -0.00002211   -0.00000339    0.00002902
     atom   31 type  3   force =    -0.00001699    0.00003822    0.00004508
     atom   32 type  4   force =    -0.00000407    0.00000244    0.00000717
     atom   33 type  3   force =    -0.00002704   -0.00003123    0.00000371
     atom   34 type  4   force =    -0.00000999   -0.00001374    0.00000155
     atom   35 type  3   force =     0.00000600   -0.00004091   -0.00004350
     atom   36 type  3   force =     0.00004840   -0.00000068   -0.00005339
     atom   37 type  4   force =     0.00001499    0.00000445   -0.00001305
     atom   38 type  3   force =     0.00001788    0.00005892    0.00002060
     atom   39 type  4   force =     0.00001237    0.00001517   -0.00000297
     atom   40 type  3   force =     0.00002336    0.00005126    0.00007890
     atom   41 type  3   force =    -0.00001192   -0.00001316   -0.00000932
     atom   42 type  5   force =     0.00005598    0.00002412    0.00006406
     atom   43 type  5   force =    -0.00002015    0.00003251    0.00010208
     atom   44 type  5   force =    -0.00000230    0.00010823    0.00006954
     atom   45 type  5   force =     0.00001321   -0.00001538   -0.00002230
     atom   46 type  5   force =    -0.00003101   -0.00004825   -0.00002624
     atom   47 type  5   force =    -0.00000892   -0.00000131   -0.00004744

     DFT-D3 dispersion contribution to forces:
     atom    1 type  1   force =    -0.00048072    0.00033685   -0.00010387
     atom    2 type  2   force =    -0.00016057   -0.00009319    0.00005184
     atom    3 type  3   force =     0.00025011   -0.00004776    0.00018332
     atom    4 type  4   force =     0.00031724   -0.00023749    0.00005913
     atom    5 type  3   force =     0.00028318   -0.00019175    0.00005667
     atom    6 type  4   force =     0.00030065   -0.00024869    0.00002256
     atom    7 type  3   force =     0.00010627    0.00009401    0.00020408
     atom    8 type  3   force =    -0.00018235    0.00025299    0.00005877
     atom    9 type  4   force =    -0.00023645    0.00030755    0.00007505
     atom   10 type  3   force =    -0.00021015    0.00023871    0.00003677
     atom   11 type  4   force =    -0.00028301    0.00026146    0.00000711
     atom   12 type  3   force =    -0.00000369    0.00014924    0.00014356
     atom   13 type  3   force =    -0.00030422    0.00020958   -0.00007221
     atom   14 type  4   force =    -0.00022868    0.00014636   -0.00007432
     atom   15 type  3   force =    -0.00011616    0.00006516   -0.00005273
     atom   16 type  4   force =     0.00017095   -0.00010027    0.00006011
     atom   17 type  3   force =    -0.00029560    0.00027016    0.00001125
     atom   18 type  3   force =    -0.00014981   -0.00005942   -0.00016112
     atom   19 type  3   force =    -0.00031247   -0.00007425   -0.00012317
     atom   20 type  4   force =    -0.00039299    0.00001189   -0.00006360
     atom   21 type  3   force =    -0.00038713   -0.00009167   -0.00003063
     atom   22 type  4   force =    -0.00040284   -0.00006750   -0.00009262
     atom   23 type  3   force =    -0.00001666    0.00003828    0.00000183
     atom   24 type  3   force =     0.00019201   -0.00005105    0.00014416
     atom   25 type  4   force =     0.00037864   -0.00000378    0.00018141
     atom   26 type  3   force =     0.00021946   -0.00015221   -0.00009780
     atom   27 type  4   force =     0.00040876   -0.00005425   -0.00000270
     atom   28 type  3   force =     0.00006545    0.00025999    0.00001925
     atom   29 type  4   force =     0.00015180    0.00015345   -0.00017085
     atom   30 type  3   force =     0.00008034   -0.00011148   -0.00016428
     atom   31 type  3   force =    -0.00011560   -0.00026042    0.00000212
     atom   32 type  4   force =    -0.00025631   -0.00028123    0.00013970
     atom   33 type  3   force =    -0.00022534   -0.00024142    0.00010840
     atom   34 type  4   force =    -0.00026561   -0.00026285    0.00012662
     atom   35 type  3   force =     0.00004264   -0.00017502   -0.00015846
     atom   36 type  3   force =     0.00021638    0.00009869   -0.00012713
     atom   37 type  4   force =     0.00030681    0.00015100   -0.00018115
     atom   38 type  3   force =     0.00022997    0.00015508   -0.00012112
     atom   39 type  4   force =     0.00028542    0.00022502   -0.00013886
     atom   40 type  3   force =     0.00024690    0.00019369    0.00045149
     atom   41 type  3   force =     0.00009994   -0.00037973   -0.00038125
     atom   42 type  5   force =     0.00030478    0.00006892    0.00024866
     atom   43 type  5   force =     0.00003646    0.00001627    0.00046007
     atom   44 type  5   force =     0.00015735    0.00029200    0.00023908
     atom   45 type  5   force =     0.00024410   -0.00031646   -0.00017719
     atom   46 type  5   force =    -0.00005689   -0.00034616   -0.00018567
     atom   47 type  5   force =    -0.00001241   -0.00014831   -0.00041229

     Total force =     0.053510     Total SCF correction =     0.000516

     BFGS Geometry Optimization
     Energy error            =      0.0E+00 Ry
     Gradient error          =      1.7E-02 Ry/Bohr

     number of scf cycles    =   1
     number of bfgs steps    =   0

     energy             new  =    -660.9798690990 Ry

     new trust radius        =       0.0178349392 bohr
     new conv_thr            =       0.0000001000 Ry


ATOMIC_POSITIONS (angstrom)
O            11.1232112975       10.0204935919       12.0956549348
N             9.1337428354       15.0746630440       15.4441614094
C             7.5107167462        9.4256776302        8.3155516103
H             7.0870838267       10.2769476343        8.8420027569
C             6.8743228357        8.9537390166        7.1653073157
H             5.9597748802        9.4389775304        6.8307166929
C             7.3526851884        7.8162676736        6.5080036114
C             8.5162850907        7.2030230099        6.9935503285
H             8.9265680801        6.3504785648        6.4552742466
C             9.1681517141        7.6910068244        8.1190803166
H            10.1062896778        7.2312659945        8.4429873707
C             8.6877787115        8.8202553557        8.8062030029
C             9.4216649083        9.2882493823        9.9855544224
H            10.3277348896        8.7094554790       10.2148204073
C             9.1391297063       10.3120132695       10.8128429445
H             8.2509719985       10.9352002496       10.6527235120
C            10.0859671931       10.6658264879       11.9152867399
C             9.7873082455       11.8436121241       12.7910595048
C            10.8409488765       12.4289280807       13.5215865442
H            11.8494907266       12.0422402592       13.3833437606
C            10.6218421498       13.4938308125       14.3782105214
H            11.4409946645       13.9817108235       14.9047173538
C             9.3180163221       13.9837228364       14.5901515112
C             8.2638723934       13.4116762008       13.8609101569
H             7.2642688468       13.8368120599       13.9643466230
C             8.5000159485       12.3780825341       12.9620410670
H             7.6621303565       11.9706643971       12.3977249546
C             8.2054635333       15.0787861932       16.3334702437
H             7.5785339377       14.1876508244       16.5373192726
C             7.9398247609       16.2379433892       17.1947709012
C             8.6899684843       17.4233538021       17.1343624438
H             9.4459978643       17.4948855684       16.3517602958
C             8.4973113132       18.4566630731       18.0543724785
H             9.0754092513       19.3738144071       17.9492054733
C             7.5112574280       18.3428312371       19.0441294318
C             6.7061237251       17.2001720494       19.0550399629
H             5.8760651188       17.1462644369       19.7508762889
C             6.9234402701       16.1575037161       18.1616258225
H             6.2979878474       15.2621910548       18.2014159974
C             6.6868470704        7.3036487712        5.2436436988
C             7.2412201322       19.4130830172       20.0810268586
F             5.3816470725        7.6836291236        5.1337713419
F             7.3276322523        7.7582473930        4.1272181257
F             6.7028423068        5.9392273755        5.1665783871
F             5.9569339804       19.8878294125       20.0131823040
F             8.0589201298       20.5018775841       19.9592595380
F             7.3980134058       18.9235967005       21.3528595291



     Writing config-only to output data dir ./outdir/4amp33iso.save/
     NEW-OLD atomic charge density approx. for the potential

     negative rho (up, down):  1.203E-02 0.000E+00

     total cpu time spent up to now is      420.6 secs

     Self-consistent Calculation

     iteration #  1     ecut=    50.00 Ry     beta= 0.70
     Davidson diagonalization with overlap
     ethr =  1.00E-06,  avg # of iterations =  9.0

     negative rho (up, down):  1.170E-02 0.000E+00

     total cpu time spent up to now is      442.8 secs

     total energy              =    -660.98133552 Ry
     estimated scf accuracy    <       0.00045607 Ry

     iteration #  2     ecut=    50.00 Ry     beta= 0.70
     Davidson diagonalization with overlap
     ethr =  2.78E-07,  avg # of iterations =  7.0

     negative rho (up, down):  1.128E-02 0.000E+00

     total cpu time spent up to now is      464.2 secs

     total energy              =    -660.98136677 Ry
     estimated scf accuracy    <       0.00013453 Ry

     iteration #  3     ecut=    50.00 Ry     beta= 0.70
     Davidson diagonalization with overlap
     ethr =  8.20E-08,  avg # of iterations =  6.0

     negative rho (up, down):  1.121E-02 0.000E+00

     total cpu time spent up to now is      490.9 secs

     total energy              =    -660.98141820 Ry
     estimated scf accuracy    <       0.00001463 Ry

     iteration #  4     ecut=    50.00 Ry     beta= 0.70
     Davidson diagonalization with overlap
     ethr =  8.92E-09,  avg # of iterations =  9.0

     negative rho (up, down):  1.124E-02 0.000E+00

     total cpu time spent up to now is      508.5 secs

     total energy              =    -660.98143108 Ry
     estimated scf accuracy    <       0.00000680 Ry

     iteration #  5     ecut=    50.00 Ry     beta= 0.70
     Davidson diagonalization with overlap
     ethr =  4.15E-09,  avg # of iterations =  5.0

     negative rho (up, down):  1.132E-02 0.000E+00

     total cpu time spent up to now is      526.0 secs

     total energy              =    -660.98143084 Ry
     estimated scf accuracy    <       0.00000384 Ry

     iteration #  6     ecut=    50.00 Ry     beta= 0.70
     Davidson diagonalization with overlap
     ethr =  2.34E-09,  avg # of iterations =  5.0

     negative rho (up, down):  1.144E-02 0.000E+00

     total cpu time spent up to now is      546.3 secs

     total energy              =    -660.98143120 Ry
     estimated scf accuracy    <       0.00000151 Ry

     iteration #  7     ecut=    50.00 Ry     beta= 0.70
     Davidson diagonalization with overlap
     ethr =  9.19E-10,  avg # of iterations =  8.0

     negative rho (up, down):  1.160E-02 0.000E+00

     total cpu time spent up to now is      566.0 secs

     total energy              =    -660.98143129 Ry
     estimated scf accuracy    <       0.00000075 Ry

     iteration #  8     ecut=    50.00 Ry     beta= 0.70
     Davidson diagonalization with overlap
     ethr =  4.58E-10,  avg # of iterations =  6.0

     negative rho (up, down):  1.166E-02 0.000E+00

     total cpu time spent up to now is      590.0 secs

     total energy              =    -660.98143144 Ry
     estimated scf accuracy    <       0.00000043 Ry

     iteration #  9     ecut=    50.00 Ry     beta= 0.70
     Davidson diagonalization with overlap
     ethr =  2.65E-10,  avg # of iterations =  4.0

     negative rho (up, down):  1.181E-02 0.000E+00

     total cpu time spent up to now is      617.5 secs

     total energy              =    -660.98143136 Ry
     estimated scf accuracy    <       0.00000033 Ry

     iteration # 10     ecut=    50.00 Ry     beta= 0.70
     Davidson diagonalization with overlap
     ethr =  2.03E-10,  avg # of iterations =  9.0

     negative rho (up, down):  1.185E-02 0.000E+00

     total cpu time spent up to now is      637.5 secs

     total energy              =    -660.98143139 Ry
     estimated scf accuracy    <       0.00000020 Ry

     iteration # 11     ecut=    50.00 Ry     beta= 0.70
     Davidson diagonalization with overlap
     ethr =  1.20E-10,  avg # of iterations =  5.0

     negative rho (up, down):  1.195E-02 0.000E+00

     total cpu time spent up to now is      656.6 secs

     total energy              =    -660.98143132 Ry
     estimated scf accuracy    <       0.00000016 Ry

     iteration # 12     ecut=    50.00 Ry     beta= 0.70
     Davidson diagonalization with overlap
     ethr =  9.72E-11,  avg # of iterations =  7.0

     negative rho (up, down):  1.202E-02 0.000E+00

     total cpu time spent up to now is      673.5 secs

     total energy              =    -660.98143131 Ry
     estimated scf accuracy    <       0.00000014 Ry

     iteration # 13     ecut=    50.00 Ry     beta= 0.70
     Davidson diagonalization with overlap
     ethr =  8.49E-11,  avg # of iterations =  7.0

     negative rho (up, down):  1.207E-02 0.000E+00

     total cpu time spent up to now is      675.6 secs

     End of self-consistent calculation

          k = 0.0000 0.0000 0.0000 (231429 PWs)   bands (ev):

   -32.8158 -32.8051 -30.6295 -30.6086 -30.5463 -30.5256 -25.8497 -24.0356
   -22.2630 -22.1745 -21.6083 -20.5313 -20.2391 -19.4205 -19.2487 -19.1492
   -19.0111 -18.9214 -17.9275 -17.5828 -16.7870 -16.2314 -15.9575 -15.7908
   -15.6059 -15.4689 -14.9225 -14.4832 -14.4221 -14.4018 -14.3460 -14.2693
   -14.2304 -14.1805 -13.6042 -13.2435 -12.8237 -12.5902 -12.0739 -11.7519
   -11.7243 -11.5502 -11.5008 -11.4208 -11.1141 -11.0874 -11.0399 -11.0224
   -10.9985 -10.9057 -10.8491 -10.6408 -10.6012 -10.4740 -10.3936 -10.3087
   -10.2440 -10.1626  -9.9841  -9.9760  -9.9342  -9.7553  -9.5615  -9.5506
    -9.5136  -9.4207  -9.3304  -9.0746  -8.9560  -8.9115  -8.8467  -8.6988
    -8.4564  -8.0128  -7.5372  -7.1133  -7.0125  -6.8711  -6.7926  -6.3569
    -6.0513  -5.8533

     highest occupied level (ev):    -5.8533

!    total energy              =    -660.98143126 Ry
     estimated scf accuracy    <       0.00000006 Ry

     The total energy is the sum of the following terms:
     one-electron contribution =   -6388.05532949 Ry
     hartree contribution      =    3215.48252019 Ry
     xc contribution           =    -191.56209661 Ry
     ewald contribution        =    2703.27252460 Ry
     DFT-D3 Dispersion         =      -0.11904994 Ry

     convergence has been achieved in  13 iterations

     negative rho (up, down):  1.207E-02 0.000E+00

     Forces acting on atoms (cartesian axes, Ry/au):

     atom    1 type  1   force =     0.00294060   -0.00241243   -0.00116539
     atom    2 type  2   force =    -0.00185321   -0.00195835    0.00027799
     atom    3 type  3   force =     0.00421707   -0.00518467   -0.00112451
     atom    4 type  4   force =    -0.00090169    0.00457834   -0.00176079
     atom    5 type  3   force =    -0.00668343    0.00098476   -0.00101891
     atom    6 type  4   force =    -0.00013814    0.00129432    0.00109303
     atom    7 type  3   force =     0.00594398   -0.00234912    0.00450013
     atom    8 type  3   force =    -0.00222614   -0.00458094   -0.01003958
     atom    9 type  4   force =    -0.00001447   -0.00350629    0.00214774
     atom   10 type  3   force =     0.00726493   -0.00078094    0.00547309
     atom   11 type  4   force =    -0.00622280   -0.00099926    0.00034034
     atom   12 type  3   force =    -0.00888459    0.00584004    0.00230596
     atom   13 type  3   force =     0.00265879   -0.01616699   -0.01029804
     atom   14 type  4   force =    -0.00295087    0.00662328    0.00083966
     atom   15 type  3   force =    -0.00372242    0.01313145    0.00547792
     atom   16 type  4   force =     0.00740017   -0.00335801    0.00228716
     atom   17 type  3   force =    -0.00588560    0.00449041   -0.00265255
     atom   18 type  3   force =    -0.00291302    0.00141173    0.00191869
     atom   19 type  3   force =     0.00330176   -0.00163879   -0.00108194
     atom   20 type  4   force =    -0.00058996   -0.00310120   -0.00060609
     atom   21 type  3   force =    -0.00217084    0.00435936    0.00040277
     atom   22 type  4   force =     0.00213019   -0.00282809    0.00006938
     atom   23 type  3   force =     0.00266978   -0.00009632    0.00056628
     atom   24 type  3   force =    -0.00817434    0.00503258   -0.00088977
     atom   25 type  4   force =    -0.00012053   -0.00280445    0.00038028
     atom   26 type  3   force =     0.00085640   -0.00436501   -0.00351006
     atom   27 type  4   force =    -0.00134210   -0.00043062    0.00109532
     atom   28 type  3   force =    -0.00107760    0.00573735   -0.00162479
     atom   29 type  4   force =     0.00153010    0.00243317   -0.00459511
     atom   30 type  3   force =    -0.00025482    0.00203714    0.00236877
     atom   31 type  3   force =     0.00627170   -0.00075526   -0.00438461
     atom   32 type  4   force =     0.00136049    0.00428106    0.00267081
     atom   33 type  3   force =    -0.00263741    0.00394031    0.00487038
     atom   34 type  4   force =     0.00269640   -0.00280086    0.01107280
     atom   35 type  3   force =    -0.00253711   -0.00149018   -0.00261538
     atom   36 type  3   force =    -0.00577726   -0.00120473    0.00940822
     atom   37 type  4   force =    -0.00210759   -0.00408120    0.00969589
     atom   38 type  3   force =     0.00013203   -0.00323459   -0.00018960
     atom   39 type  4   force =    -0.00013408    0.00170983    0.00078443
     atom   40 type  3   force =     0.00310288   -0.00142185   -0.00001904
     atom   41 type  3   force =     0.00286944   -0.00034744   -0.00930490
     atom   42 type  5   force =     0.00284282   -0.00250175    0.00200911
     atom   43 type  5   force =     0.00242778   -0.00549210   -0.00215625
     atom   44 type  5   force =     0.00305874   -0.00075187   -0.00191425
     atom   45 type  5   force =     0.00284030    0.00419921   -0.00482249
     atom   46 type  5   force =    -0.00104542    0.00709635    0.00041755
     atom   47 type  5   force =     0.00184909    0.00146263   -0.00669968
     The Martyna-Tuckerman correction term to forces
     atom    1 type  1   force =     0.00206616    0.00052422   -0.00001760
     atom    2 type  2   force =     0.00135961    0.00002733   -0.00006219
     atom    3 type  3   force =     0.00078722    0.00096442   -0.00058319
     atom    4 type  4   force =     0.00022946    0.00009214   -0.00299202
     atom    5 type  3   force =     0.00068736    0.00227293   -0.02882071
     atom    6 type  4   force =     0.00023757    0.00065874    0.00430179
     atom    7 type  3   force =     0.00046141   -0.01033530    0.00302032
     atom    8 type  3   force =     0.00008532   -0.00407031   -0.00349179
     atom    9 type  4   force =    -0.00002817   -0.00084249    0.00017462
     atom   10 type  3   force =     0.00043862   -0.01220104    0.00701104
     atom   11 type  4   force =     0.00004853   -0.00096543   -0.00142370
     atom   12 type  3   force =     0.00076211    0.00010926   -0.01100297
     atom   13 type  3   force =     0.00097718    0.00012534   -0.00012065
     atom   14 type  4   force =     0.00024640   -0.00008119    0.00000606
     atom   15 type  3   force =     0.00110316    0.00016740   -0.00006988
     atom   16 type  4   force =     0.00026905    0.00003235   -0.00002955
     atom   17 type  3   force =     0.00127570    0.00023517   -0.00004641
     atom   18 type  3   force =     0.00131822    0.00018701   -0.00008203
     atom   19 type  3   force =     0.00152739    0.00016840   -0.00008800
     atom   20 type  4   force =     0.00044630    0.00006020   -0.00001336
     atom   21 type  3   force =     0.00147899    0.00007076   -0.00013364
     atom   22 type  4   force =     0.00041639   -0.00000496   -0.00003903
     atom   23 type  3   force =     0.00121180    0.00008885   -0.00013042
     atom   24 type  3   force =     0.00111129    0.00016985   -0.00010556
     atom   25 type  4   force =     0.00024620    0.00005579   -0.00001990
     atom   26 type  3   force =     0.00117770    0.00017838   -0.00010539
     atom   27 type  4   force =     0.00028326    0.00004900   -0.00003041
     atom   28 type  3   force =     0.00090679    0.00003015    0.00422067
     atom   29 type  4   force =     0.00022156    0.00000533    0.00267024
     atom   30 type  3   force =     0.00064962   -0.00102958    0.00107452
     atom   31 type  3   force =     0.00058839   -0.00097898    0.00425354
     atom   32 type  4   force =     0.00020998   -0.00003649    0.00086238
     atom   33 type  3   force =     0.00012920    0.00565068    0.01870529
     atom   34 type  4   force =     0.00001508   -0.00033910    0.00624656
     atom   35 type  3   force =     0.00040158    0.00465682    0.00853004
     atom   36 type  3   force =     0.00049625   -0.00104369    0.01015024
     atom   37 type  4   force =     0.00017767   -0.00054445    0.00274027
     atom   38 type  3   force =     0.00038706   -0.00271321    0.00427428
     atom   39 type  4   force =     0.00014397   -0.00068495   -0.00113765
     atom   40 type  3   force =     0.00058666   -0.00262429   -0.01225150
     atom   41 type  3   force =     0.00034616   -0.00274604   -0.00554134
     atom   42 type  5   force =     0.00180288   -0.02008783   -0.00524429
     atom   43 type  5   force =     0.00092714   -0.02430213    0.00327295
     atom   44 type  5   force =     0.00094599   -0.00144585   -0.01075199
     atom   45 type  5   force =     0.00108190    0.04170603   -0.00225674
     atom   46 type  5   force =    -0.00006467    0.03271727    0.00390115
     atom   47 type  5   force =     0.00075143    0.00560721    0.00220628
     The non-local contrib.  to forces
     atom    1 type  1   force =    -2.11767445    1.31447583   -0.40271867
     atom    2 type  2   force =    -0.97600869   -1.16070256    0.21294990
     atom    3 type  3   force =     0.01404880   -0.00799758   -0.00442917
     atom    4 type  4   force =     0.03088867   -0.06135369   -0.03780479
     atom    5 type  3   force =     0.02361009   -0.04671838   -0.00142361
     atom    6 type  4   force =     0.06672539   -0.03520231    0.02398777
     atom    7 type  3   force =    -0.06415313   -0.04485392   -0.14774903
     atom    8 type  3   force =    -0.05644695    0.02389215   -0.01850713
     atom    9 type  4   force =    -0.02989611    0.06196475    0.03907902
     atom   10 type  3   force =    -0.01573993    0.00089631   -0.01622003
     atom   11 type  4   force =    -0.06658618    0.03248344   -0.02254861
     atom   12 type  3   force =     0.01416865    0.01710563    0.04951353
     atom   13 type  3   force =    -0.05774957   -0.04821169   -0.09688256
     atom   14 type  4   force =    -0.06412154    0.03943884   -0.01793523
     atom   15 type  3   force =    -0.00914300    0.05288885    0.03656213
     atom   16 type  4   force =     0.06118797   -0.04284639    0.01155775
     atom   17 type  3   force =     0.08602541   -0.06054445    0.01239902
     atom   18 type  3   force =    -0.01702561   -0.00348412   -0.01484148
     atom   19 type  3   force =    -0.05231701    0.01691579   -0.00573336
     atom   20 type  4   force =    -0.07313936    0.02920542    0.01046497
     atom   21 type  3   force =    -0.05824431   -0.00815120    0.03123194
     atom   22 type  4   force =    -0.05871738   -0.03557753   -0.03778625
     atom   23 type  3   force =    -0.03225599    0.24533282    0.12685149
     atom   24 type  3   force =     0.01704219    0.02392832    0.00886656
     atom   25 type  4   force =     0.07074524   -0.03030243   -0.00692026
     atom   26 type  3   force =    -0.01042884   -0.01933293    0.00930061
     atom   27 type  4   force =     0.06005848    0.02893989    0.03996951
     atom   28 type  3   force =     0.10132841    0.07317000   -0.05532812
     atom   29 type  4   force =     0.04137204    0.06020126   -0.01369498
     atom   30 type  3   force =    -0.01253846   -0.05192935   -0.02237553
     atom   31 type  3   force =    -0.03588453   -0.02191979    0.03935905
     atom   32 type  4   force =    -0.05452603   -0.00382805    0.05720319
     atom   33 type  3   force =    -0.05327784   -0.02719512    0.03794579
     atom   34 type  4   force =    -0.04177684   -0.06673899    0.00792671
     atom   35 type  3   force =    -0.02932879    0.11404241    0.11533674
     atom   36 type  3   force =     0.03405463    0.03160484   -0.00327806
     atom   37 type  4   force =     0.06148504    0.00397579   -0.05088614
     atom   38 type  3   force =     0.00223254    0.00873828   -0.00054942
     atom   39 type  4   force =     0.04441872    0.06325372   -0.00299589
     atom   40 type  3   force =    -0.27851173   -0.21871032   -0.54184940
     atom   41 type  3   force =    -0.11867860    0.44857154    0.44915347
     atom   42 type  5   force =     2.83026057   -0.75286649    0.29007820
     atom   43 type  5   force =    -1.36458382   -0.95666293    2.37557860
     atom   44 type  5   force =     0.01390190    2.91595037    0.19911187
     atom   45 type  5   force =     2.69774803   -1.06281899    0.12889299
     atom   46 type  5   force =    -1.72216349   -2.39146123    0.20398922
     atom   47 type  5   force =    -0.33635679    1.01053260   -2.69105059
     The ionic contribution  to forces
     atom    1 type  1   force =    15.72022568  -10.48204558    3.22304426
[...]
     atom   27 type  4   force =     3.12228687    0.71349836    1.18808575
     atom   28 type  3   force =     3.84813740    2.54834031   -2.65476714
     atom   29 type  4   force =     2.05683218    2.63311527   -1.06052888
     atom   30 type  3   force =     0.56043211    1.41441350    0.75894555
     atom   31 type  3   force =    -5.38357251   -3.34733319    4.10891829
     atom   32 type  4   force =    -2.57964078   -1.32188168    2.13588694
     atom   33 type  3   force =    -5.65373357   -5.46893448    2.47191214
     atom   34 type  4   force =    -2.51741815   -2.86867837    0.91585310
     atom   35 type  3   force =    -0.20525995   -0.53885000    0.00068218
     atom   36 type  3   force =     6.29377193    3.49769404   -4.04471982
     atom   37 type  4   force =     3.08411526    1.11403022   -2.14924625
     atom   38 type  3   force =     5.56548157    5.62724899   -1.96167461
     atom   39 type  4   force =     2.45610672    2.72373723   -0.68512442
     atom   40 type  3   force =     0.31674965    0.59079398    0.58245631
     atom   41 type  3   force =    -0.27781914   -1.11247807   -0.39906602
     atom   42 type  5   force =    20.23319267   -2.91359097    5.13623118
     atom   43 type  5   force =    -7.77389022   -4.81735859   19.66692328
     atom   44 type  5   force =     1.85143024   21.75903858    4.33239899
     atom   45 type  5   force =    18.90974599  -10.65718967   -1.41119864
     atom   46 type  5   force =   -10.81802975  -18.86720299   -1.51642531
     atom   47 type  5   force =    -2.33190886    3.55367675  -21.25776005
     The core correction contribution to forces
     atom    1 type  1   force =     0.01463463   -0.00922964    0.00282801
     atom    2 type  2   force =     0.01273495    0.01728573   -0.00089464
     atom    3 type  3   force =     0.00029843   -0.00128396   -0.00112579
     atom    4 type  4   force =     0.00000000    0.00000000    0.00000000
     atom    5 type  3   force =     0.00084903    0.00005955    0.00104091
     atom    6 type  4   force =     0.00000000    0.00000000    0.00000000
     atom    7 type  3   force =     0.00260374    0.00155128    0.00436951
     atom    8 type  3   force =     0.00029304    0.00123680    0.00126772
     atom    9 type  4   force =     0.00000000    0.00000000    0.00000000
     atom   10 type  3   force =    -0.00102920    0.00075855   -0.00064601
     atom   11 type  4   force =     0.00000000    0.00000000    0.00000000
     atom   12 type  3   force =    -0.00109380   -0.00101657   -0.00233350
     atom   13 type  3   force =     0.00102854    0.00268099    0.00345351
     atom   14 type  4   force =     0.00000000    0.00000000    0.00000000
     atom   15 type  3   force =     0.00073208   -0.00292129   -0.00264889
     atom   16 type  4   force =     0.00000000    0.00000000    0.00000000
     atom   17 type  3   force =     0.00454323   -0.00273514    0.00067901
     atom   18 type  3   force =    -0.00015627    0.00155637    0.00159468
     atom   19 type  3   force =    -0.00058855    0.00080029    0.00061930
     atom   20 type  4   force =     0.00000000    0.00000000    0.00000000
     atom   21 type  3   force =    -0.00031850   -0.00082287   -0.00169738
     atom   22 type  4   force =     0.00000000    0.00000000    0.00000000
     atom   23 type  3   force =     0.00059381   -0.00562306   -0.00311090
     atom   24 type  3   force =     0.00141392   -0.00105672   -0.00067001
     atom   25 type  4   force =     0.00000000    0.00000000    0.00000000
     atom   26 type  3   force =     0.00150402    0.00111639    0.00095146
     atom   27 type  4   force =     0.00000000    0.00000000    0.00000000
     atom   28 type  3   force =     0.00194049   -0.00172245   -0.00252835
     atom   29 type  4   force =     0.00000000    0.00000000    0.00000000
     atom   30 type  3   force =     0.00010880    0.00224826    0.00157879
     atom   31 type  3   force =    -0.00052383    0.00014001    0.00067758
     atom   32 type  4   force =     0.00000000    0.00000000    0.00000000
     atom   33 type  3   force =    -0.00030310   -0.00103984   -0.00071993
     atom   34 type  4   force =     0.00000000    0.00000000    0.00000000
     atom   35 type  3   force =     0.00079943   -0.00372762   -0.00355440
     atom   36 type  3   force =     0.00058500   -0.00066619   -0.00143964
     atom   37 type  4   force =     0.00000000    0.00000000    0.00000000
     atom   38 type  3   force =     0.00077283    0.00146296    0.00019846
     atom   39 type  4   force =     0.00000000    0.00000000    0.00000000
     atom   40 type  3   force =     0.00612906    0.00476223    0.01189924
     atom   41 type  3   force =     0.00254595   -0.01013405   -0.01006988
     atom   42 type  5   force =    -0.00921563    0.00239518   -0.00087459
     atom   43 type  5   force =     0.00439713    0.00291434   -0.00777515
     atom   44 type  5   force =    -0.00006034   -0.00944939   -0.00077500
     atom   45 type  5   force =    -0.00870641    0.00353653   -0.00039201
     atom   46 type  5   force =     0.00542581    0.00799281   -0.00036707
     atom   47 type  5   force =     0.00111566   -0.00333436    0.00867358
     The Hubbard contrib.    to forces
     atom    1 type  1   force =     0.00000000    0.00000000    0.00000000
     atom    2 type  2   force =     0.00000000    0.00000000    0.00000000
     atom    3 type  3   force =     0.00000000    0.00000000    0.00000000
     atom    4 type  4   force =     0.00000000    0.00000000    0.00000000
     atom    5 type  3   force =     0.00000000    0.00000000    0.00000000
     atom    6 type  4   force =     0.00000000    0.00000000    0.00000000
     atom    7 type  3   force =     0.00000000    0.00000000    0.00000000
     atom    8 type  3   force =     0.00000000    0.00000000    0.00000000
     atom    9 type  4   force =     0.00000000    0.00000000    0.00000000
     atom   10 type  3   force =     0.00000000    0.00000000    0.00000000
     atom   11 type  4   force =     0.00000000    0.00000000    0.00000000
     atom   12 type  3   force =     0.00000000    0.00000000    0.00000000
     atom   13 type  3   force =     0.00000000    0.00000000    0.00000000
     atom   14 type  4   force =     0.00000000    0.00000000    0.00000000
     atom   15 type  3   force =     0.00000000    0.00000000    0.00000000
     atom   16 type  4   force =     0.00000000    0.00000000    0.00000000
     atom   17 type  3   force =     0.00000000    0.00000000    0.00000000
     atom   18 type  3   force =     0.00000000    0.00000000    0.00000000
     atom   19 type  3   force =     0.00000000    0.00000000    0.00000000
     atom   20 type  4   force =     0.00000000    0.00000000    0.00000000
     atom   21 type  3   force =     0.00000000    0.00000000    0.00000000
     atom   22 type  4   force =     0.00000000    0.00000000    0.00000000
     atom   23 type  3   force =     0.00000000    0.00000000    0.00000000
     atom   24 type  3   force =     0.00000000    0.00000000    0.00000000
     atom   25 type  4   force =     0.00000000    0.00000000    0.00000000
     atom   26 type  3   force =     0.00000000    0.00000000    0.00000000
     atom   27 type  4   force =     0.00000000    0.00000000    0.00000000
     atom   28 type  3   force =     0.00000000    0.00000000    0.00000000
     atom   29 type  4   force =     0.00000000    0.00000000    0.00000000
     atom   30 type  3   force =     0.00000000    0.00000000    0.00000000
     atom   31 type  3   force =     0.00000000    0.00000000    0.00000000
     atom   32 type  4   force =     0.00000000    0.00000000    0.00000000
     atom   33 type  3   force =     0.00000000    0.00000000    0.00000000
     atom   34 type  4   force =     0.00000000    0.00000000    0.00000000
     atom   35 type  3   force =     0.00000000    0.00000000    0.00000000
     atom   36 type  3   force =     0.00000000    0.00000000    0.00000000
     atom   37 type  4   force =     0.00000000    0.00000000    0.00000000
     atom   38 type  3   force =     0.00000000    0.00000000    0.00000000
     atom   39 type  4   force =     0.00000000    0.00000000    0.00000000
     atom   40 type  3   force =     0.00000000    0.00000000    0.00000000
     atom   41 type  3   force =     0.00000000    0.00000000    0.00000000
     atom   42 type  5   force =     0.00000000    0.00000000    0.00000000
     atom   43 type  5   force =     0.00000000    0.00000000    0.00000000
     atom   44 type  5   force =     0.00000000    0.00000000    0.00000000
     atom   45 type  5   force =     0.00000000    0.00000000    0.00000000
     atom   46 type  5   force =     0.00000000    0.00000000    0.00000000
     atom   47 type  5   force =     0.00000000    0.00000000    0.00000000
     The SCF correction term to forces
     atom    1 type  1   force =    -0.00000734    0.00000590    0.00000036
     atom    2 type  2   force =    -0.00000172   -0.00001451   -0.00001348
     atom    3 type  3   force =     0.00000265   -0.00000244   -0.00000063
     atom    4 type  4   force =     0.00000123   -0.00000130   -0.00000009
     atom    5 type  3   force =     0.00000392    0.00000181    0.00000416
     atom    6 type  4   force =     0.00000253   -0.00000099    0.00000115
     atom    7 type  3   force =     0.00000327    0.00000262    0.00000449
     atom    8 type  3   force =    -0.00000051    0.00000319    0.00000261
     atom    9 type  4   force =    -0.00000138    0.00000234    0.00000113
     atom   10 type  3   force =    -0.00000532    0.00000500   -0.00000070
     atom   11 type  4   force =    -0.00000155    0.00000147   -0.00000008
     atom   12 type  3   force =    -0.00000092    0.00000238    0.00000080
     atom   13 type  3   force =    -0.00000433    0.00000186   -0.00000225
     atom   14 type  4   force =    -0.00000198    0.00000122   -0.00000050
     atom   15 type  3   force =    -0.00000085   -0.00000055   -0.00000146
     atom   16 type  4   force =     0.00000088   -0.00000060    0.00000022
     atom   17 type  3   force =    -0.00000189    0.00000319    0.00000148
     atom   18 type  3   force =    -0.00000502    0.00000251   -0.00000025
     atom   19 type  3   force =    -0.00000700   -0.00000146   -0.00000356
     atom   20 type  4   force =    -0.00000227    0.00000019   -0.00000056
     atom   21 type  3   force =    -0.00000480   -0.00000485   -0.00000512
     atom   22 type  4   force =    -0.00000155   -0.00000148   -0.00000166
     atom   23 type  3   force =    -0.00000278   -0.00000745   -0.00000675
     atom   24 type  3   force =     0.00000416   -0.00000630   -0.00000524
     atom   25 type  4   force =     0.00000273   -0.00000172   -0.00000101
     atom   26 type  3   force =     0.00000437    0.00000062    0.00000000
     atom   27 type  4   force =     0.00000264    0.00000068    0.00000069
     atom   28 type  3   force =     0.00000080   -0.00001035   -0.00001151
     atom   29 type  4   force =     0.00000062   -0.00000138   -0.00000253
     atom   30 type  3   force =    -0.00000485   -0.00001082   -0.00000573
     atom   31 type  3   force =     0.00000066   -0.00000539   -0.00000782
     atom   32 type  4   force =     0.00000123   -0.00000119   -0.00000281
     atom   33 type  3   force =    -0.00000029    0.00000158   -0.00000129
     atom   34 type  4   force =     0.00000064    0.00000076   -0.00000083
     atom   35 type  3   force =    -0.00000224   -0.00000091   -0.00000066
     atom   36 type  3   force =    -0.00000116   -0.00000523   -0.00000540
     atom   37 type  4   force =    -0.00000083   -0.00000059   -0.00000030
     atom   38 type  3   force =    -0.00000152   -0.00000601   -0.00000601
     atom   39 type  4   force =     0.00000065   -0.00000041   -0.00000162
     atom   40 type  3   force =     0.00000104   -0.00000084   -0.00000009
     atom   41 type  3   force =    -0.00000350    0.00000026    0.00000075
     atom   42 type  5   force =     0.00001478   -0.00000270    0.00000261
     atom   43 type  5   force =    -0.00000509   -0.00000438    0.00001398
     atom   44 type  5   force =     0.00000192    0.00001523    0.00000339
     atom   45 type  5   force =    -0.00000637    0.00000132    0.00000217
     atom   46 type  5   force =    -0.00000373    0.00000178   -0.00000126
     atom   47 type  5   force =    -0.00000408    0.00000114    0.00000566

     DFT-D3 dispersion contribution to forces:
     atom    1 type  1   force =    -0.00047541    0.00033594   -0.00009780
     atom    2 type  2   force =    -0.00016135   -0.00009004    0.00005342
     atom    3 type  3   force =     0.00025588   -0.00004901    0.00018772
     atom    4 type  4   force =     0.00031855   -0.00024266    0.00006106
     atom    5 type  3   force =     0.00030437   -0.00021275    0.00005311
     atom    6 type  4   force =     0.00029923   -0.00024853    0.00002154
     atom    7 type  3   force =     0.00008922    0.00009068    0.00017997
     atom    8 type  3   force =    -0.00020597    0.00028177    0.00006568
     atom    9 type  4   force =    -0.00023363    0.00030299    0.00007022
     atom   10 type  3   force =    -0.00019419    0.00023625    0.00004483
     atom   11 type  4   force =    -0.00028220    0.00026379    0.00000585
     atom   12 type  3   force =     0.00000367    0.00014967    0.00014564
     atom   13 type  3   force =    -0.00029721    0.00021168   -0.00006804
     atom   14 type  4   force =    -0.00023079    0.00014297   -0.00007766
     atom   15 type  3   force =    -0.00013608    0.00007380   -0.00005089
     atom   16 type  4   force =     0.00017096   -0.00010237    0.00006067
     atom   17 type  3   force =    -0.00029581    0.00026911    0.00001342
     atom   18 type  3   force =    -0.00014973   -0.00006499   -0.00016459
     atom   19 type  3   force =    -0.00034664   -0.00006732   -0.00012573
     atom   20 type  4   force =    -0.00038944    0.00001329   -0.00006494
     atom   21 type  3   force =    -0.00040066   -0.00009267   -0.00003398
     atom   22 type  4   force =    -0.00040259   -0.00006596   -0.00009384
     atom   23 type  3   force =    -0.00001710    0.00003715    0.00001334
     atom   24 type  3   force =     0.00021316   -0.00005099    0.00014794
     atom   25 type  4   force =     0.00037693   -0.00000101    0.00017939
     atom   26 type  3   force =     0.00024444   -0.00015110   -0.00009310
     atom   27 type  4   force =     0.00040929   -0.00005398   -0.00000545
     atom   28 type  3   force =     0.00006885    0.00024194    0.00001173
     atom   29 type  4   force =     0.00015635    0.00015761   -0.00016707
     atom   30 type  3   force =     0.00006548   -0.00012242   -0.00015477
     atom   31 type  3   force =    -0.00014045   -0.00027546    0.00001728
     atom   32 type  4   force =    -0.00025673   -0.00028187    0.00013711
     atom   33 type  3   force =    -0.00024636   -0.00024359    0.00012208
     atom   34 type  4   force =    -0.00026711   -0.00025810    0.00011878
     atom   35 type  3   force =     0.00005233   -0.00013712   -0.00014846
     atom   36 type  3   force =     0.00027612    0.00012354   -0.00017987
     atom   37 type  4   force =     0.00029983    0.00015611   -0.00018327
     atom   38 type  3   force =     0.00023661    0.00013731   -0.00014001
     atom   39 type  4   force =     0.00028515    0.00022568   -0.00013883
     atom   40 type  3   force =     0.00024506    0.00019703    0.00045596
     atom   41 type  3   force =     0.00009110   -0.00039379   -0.00037202
     atom   42 type  5   force =     0.00030234    0.00007012    0.00024672
     atom   43 type  5   force =     0.00003523    0.00001910    0.00046321
     atom   44 type  5   force =     0.00015592    0.00029043    0.00024145
     atom   45 type  5   force =     0.00023888   -0.00031947   -0.00017115
     atom   46 type  5   force =    -0.00005436   -0.00035301   -0.00018604
     atom   47 type  5   force =    -0.00001113   -0.00014972   -0.00040063

     Total force =     0.031102     Total SCF correction =     0.000052
     Energy error            =      1.0E-03 Ry
     Gradient error          =      9.9E-03 Ry/Bohr

     number of scf cycles    =   5
     number of bfgs steps    =   4

     energy             old  =    -660.9849615473 Ry
     energy             new  =    -660.9859919142 Ry

     CASE: energy            _new < energy            _old

     new trust radius        =       0.0641046281 bohr
     new conv_thr            =       0.0000000020 Ry


ATOMIC_POSITIONS (angstrom)
O            11.1218381711       10.0225203541       12.0845429866
N             9.1331577205       15.0805977300       15.4411206594
C             7.4993245665        9.4229422370        8.3082828070
H             7.0874770640       10.2967270809        8.8197524123
C             6.8623458557        8.9435731569        7.1598243059
H             5.9525872410        9.4455093003        6.8326192781
C             7.3616232394        7.8063213196        6.5065878241
C             8.5257282900        7.1927806970        6.9817024690
H             8.9281905075        6.3212166707        6.4657019942
C             9.1642068430        7.6859421737        8.1198249409
H            10.0853809913        7.2148609551        8.4591542419
C             8.6680028461        8.8136297322        8.8080606646
C             9.4100271543        9.2810949521        9.9821027624
H            10.3265680945        8.7323835548       10.2181296906
C             9.1459859736       10.3212987064       10.8046992058
H             8.2647252698       10.9402149385       10.6602755719
C            10.0814362065       10.6752453623       11.9057246328
C             9.7802342601       11.8454556622       12.7926245552
C            10.8408407047       12.4272367135       13.5184312941
H            11.8442786548       12.0211704083       13.3802537239
C            10.6205852674       13.4991686438       14.3715143895
H            11.4508105642       13.9650731911       14.9057877975
C             9.3137008591       13.9876746464       14.5844983548
C             8.2508759141       13.4209489930       13.8529255113
H             7.2447384246       13.8254359912       13.9677991081
C             8.4921357803       12.3775101090       12.9584694442
H             7.6514985395       11.9628634613       12.4022127283
C             8.1986969579       15.1020866942       16.3223819956
H             7.5771004523       14.2068217273       16.5078014230
C             7.9376009560       16.2549589102       17.2010077055
C             8.7049161381       17.4322979531       17.1386639930
H             9.4679568877       17.5246645430       16.3637089833
C             8.4906369653       18.4550893905       18.0688907946
H             9.0947850916       19.3589669399       18.0337742378
C             7.4896764186       18.3391647134       19.0361706671
C             6.6870097046       17.1887613888       19.0938100190
H             5.8708358634       17.1149006573       19.8174570988
C             6.9218844875       16.1596019000       18.1786966051
H             6.2965546779       15.2638202984       18.2040760053
C             6.7091525870        7.2870860717        5.2431168763
C             7.2477450083       19.4360062336       20.0461019761
F             5.4047241003        7.6687302219        5.1459399140
F             7.3472377201        7.7252516656        4.1187271667
F             6.7277579532        5.9242015146        5.1628226658
F             5.9673641813       19.9219903670       19.9697099755
F             8.0582149567       20.5351730638       19.9427464634
F             7.4142518838       18.9290490001       21.3114740954



     Writing config-only to output data dir ./outdir/4amp33iso.save/
     NEW-OLD atomic charge density approx. for the potential

     negative rho (up, down):  1.205E-02 0.000E+00

     total cpu time spent up to now is     1740.6 secs
