     Program PWSCF v.7.2 starts on  9Mar2024 at 18:46:46

     This program is part of the open-source Quantum ESPRESSO suite
     for quantum simulation of materials; please cite
         "P. Giannozzi et al., J. Phys.:Condens. Matter 21 395502 (2009);
         "P. Giannozzi et al., J. Phys.:Condens. Matter 29 465901 (2017);
         "P. Giannozzi et al., J. Chem. Phys. 152 154105 (2020);
          URL http://www.quantum-espresso.org",
     in publications or presentations arising from this work. More details at
     http://www.quantum-espresso.org/quote

     Parallel version (MPI), running on   120 processors

     MPI processes distributed on     1 nodes
     454150 MiB available memory on the printing compute node when the environment starts

     Reading input from 4amp34iso_scf.in

     Current dimensions of program PWSCF are:
     Max number of different atomic species (ntypx) = 10
     Max number of k-points (npk) =  40000
     Max angular momentum in pseudopotentials (lmaxx) =  4

     Reading input from environ.in:
     * using full solvent mode
     * setting boundary derivatives method to SCCS default

     file F.pbe-n-rrkjus_psl.1.0.0.UPF: wavefunction(s)  2S renormalized

     IMPORTANT: XC functional enforced from input :
     Exchange-correlation= PBE
                           (   1   4   3   4   0   0   0)
     Any further DFT definition will be discarded
     Please, verify this is what you really want


     gamma-point specific algorithms are used

     R & G space division:  proc/nbgrp/npool/nimage =     120
     Subspace diagonalization in iterative solution of the eigenvalue problem:
     a serial algorithm will be used


     Parallelization info
     --------------------
     sticks:   dense  smooth     PW     G-vecs:    dense   smooth      PW
     Min         638     254     63               137594    34794    4332
     Max         640     256     66               137612    34824    4360
     Sum       76729   30707   7687             16512387  4177499  522061

     Using Slab Decomposition



     bravais-lattice index     =            0
     lattice parameter (alat)  =      56.6918  a.u.
     unit-cell volume          =   87458.4151 (a.u.)^3
     number of atoms/cell      =           49
     number of atomic types    =            5
     number of electrons       =       176.00
     number of Kohn-Sham states=          100
     kinetic-energy cutoff     =      50.0000  Ry
     charge density cutoff     =     500.0000  Ry
     scf convergence threshold =      1.0E-07
     mixing beta               =       0.7000
     number of iterations used =            8  local-TF  mixing
     Exchange-correlation= PBE
                           (   1   4   3   4   0   0   0)

     ================================================================================

                                  Environ Setup Summary

     ================================================================================

     Please cite

          O. Andreussi, I. Dabo and N. Marzari, J. Chem. Phys. 136, 064102 (2012)

     in publications or presentations arising from this work.

     ================================================================================

     Parameters
     ==========

     compensation onset threshold      =               0.1000E+01
     static permittivity               =                    36.71
     surface tension in input (dyn/cm) =                    46.30
     surface tension in internal units =               0.5948E-04
     external pressure in input (GPa)  =                    -0.50
     external pressure in inter. units =              -0.3399E-04

     Solvent Boundary
     ================

     solvent mode                      =                     full
     derivatives method                =                    chain
     numerical core for derivatives    =                      fft
     switching function adopted        =                     SCCS
     density limit for vacuum region   =               0.5000E-02
     density limit for bulk solvent    =               0.1000E-03

     Electrostatic Setup
     ===================

     electrostatic problem to solve    =              generalized
     numerical solver adopted          =                       cg
     type of auxiliary density adopted =                     none
     numerical core for poisson        =                      fft

     ================================================================================

     Assuming isolated system, Martyna-Tuckerman method


     celldm(1)=  56.691784  celldm(2)=   0.000000  celldm(3)=   0.000000
     celldm(4)=   0.000000  celldm(5)=   0.000000  celldm(6)=   0.000000

     crystal axes: (cart. coord. in units of alat)
               a(1) = (   1.000000   0.000000   0.000000 )
               a(2) = (   0.000000   0.600000   0.000000 )
               a(3) = (   0.000000   0.000000   0.800000 )

     reciprocal axes: (cart. coord. in units 2 pi/alat)
               b(1) = (  1.000000  0.000000  0.000000 )
               b(2) = (  0.000000  1.666667  0.000000 )
               b(3) = (  0.000000  0.000000  1.250000 )


     PseudoPot. # 1 for O  read from file:
     /home/cyk/q-e-qe-7.2/pp/O.pbe-n-rrkjus_psl.1.0.0.UPF
     MD5 check sum: 91400c9766925bcf19f520983a725ff0
     Pseudo is Ultrasoft + core correction, Zval =  6.0
     Generated using &quot;atomic&quot; code by A. Dal Corso  v.6.3MaX
     Using radial grid of 1095 points,  4 beta functions with:
                l(1) =   0
                l(2) =   0
                l(3) =   1
                l(4) =   1
     Q(r) pseudized with 0 coefficients


     PseudoPot. # 2 for N  read from file:
     /home/cyk/q-e-qe-7.2/pp/N.pbe-n-rrkjus_psl.1.0.0.UPF
     MD5 check sum: ada94e3ed05223de5319d0572dc76806
     Pseudo is Ultrasoft + core correction, Zval =  5.0
     Generated using &quot;atomic&quot; code by A. Dal Corso  v.6.3MaX
     Using radial grid of 1085 points,  4 beta functions with:
                l(1) =   0
                l(2) =   0
                l(3) =   1
                l(4) =   1
     Q(r) pseudized with 0 coefficients


     PseudoPot. # 3 for C  read from file:
     /home/cyk/q-e-qe-7.2/pp/C.pbe-n-rrkjus_psl.1.0.0.UPF
     MD5 check sum: 1fdd950c42eb37d8afe3dd2f8d12311e
     Pseudo is Ultrasoft + core correction, Zval =  4.0
     Generated using &quot;atomic&quot; code by A. Dal Corso  v.6.3MaX
     Using radial grid of 1073 points,  4 beta functions with:
                l(1) =   0
                l(2) =   0
                l(3) =   1
                l(4) =   1
     Q(r) pseudized with 0 coefficients


     PseudoPot. # 4 for H  read from file:
     /home/cyk/q-e-qe-7.2/pp/H.pbe-rrkjus_psl.1.0.0.UPF
     MD5 check sum: 3f4114867bd07edc7f1424d066fc1888
     Pseudo is Ultrasoft, Zval =  1.0
     Generated using &quot;atomic&quot; code by A. Dal Corso  v.6.3MaX
     Using radial grid of  929 points,  2 beta functions with:
                l(1) =   0
                l(2) =   0
     Q(r) pseudized with 0 coefficients


     PseudoPot. # 5 for F  read from file:
     /home/cyk/q-e-qe-7.2/pp/F.pbe-n-rrkjus_psl.1.0.0.UPF
     MD5 check sum: 54b1cd0d2e22d705595f13732da1ccc9
     Pseudo is Ultrasoft + core correction, Zval =  7.0
     Generated using &quot;atomic&quot; code by A. Dal Corso  v.6.3MaX
     Using radial grid of 1105 points,  4 beta functions with:
                l(1) =   0
                l(2) =   0
                l(3) =   1
                l(4) =   1
     Q(r) pseudized with 0 coefficients


     atomic species   valence    mass     pseudopotential
        O              6.00    16.00000     O ( 1.00)
        N              5.00    14.00000     N ( 1.00)
        C              4.00    12.00000     C ( 1.00)
        H              1.00     1.00000     H ( 1.00)
        F              7.00    19.00000     F ( 1.00)

     No symmetry found



   Cartesian axes

     site n.     atom                  positions (alat units)
         1           O   tau(   1) = (   0.4443792   0.1767817   0.3176428  )
         2           O   tau(   2) = (   0.2524886   0.3521694   0.2138913  )
         3           O   tau(   3) = (   0.7510589   0.3286661   0.5689849  )
         4           N   tau(   4) = (   0.5922050   0.2532258   0.4487991  )
         5           C   tau(   5) = (   0.3461915   0.3157373   0.2843299  )
         6           H   tau(   6) = (   0.3705123   0.3304094   0.3072111  )
         7           C   tau(   7) = (   0.3141534   0.3430802   0.2649312  )
         8           H   tau(   8) = (   0.3127882   0.3788071   0.2718140  )
         9           C   tau(   9) = (   0.2835002   0.3242052   0.2355027  )
        10           C   tau(  10) = (   0.2834462   0.2788759   0.2255001  )
        11           H   tau(  11) = (   0.2584089   0.2654451   0.2027173  )
        12           C   tau(  12) = (   0.3152553   0.2516854   0.2455115  )
        13           H   tau(  13) = (   0.3159801   0.2159762   0.2379613  )
        14           C   tau(  14) = (   0.3474579   0.2696616   0.2747626  )
        15           C   tau(  15) = (   0.3806758   0.2397373   0.2931658  )
        16           H   tau(  16) = (   0.3784548   0.2047647   0.2829984  )
        17           C   tau(  17) = (   0.4147369   0.2501656   0.3207198  )
        18           H   tau(  18) = (   0.4200381   0.2842394   0.3323529  )
        19           C   tau(  19) = (   0.4468877   0.2149952   0.3333125  )
        20           C   tau(  20) = (   0.4837409   0.2271545   0.3642464  )
        21           C   tau(  21) = (   0.5215167   0.1993557   0.3649033  )
        22           H   tau(  22) = (   0.5219378   0.1705142   0.3426997  )
        23           C   tau(  23) = (   0.5567710   0.2083104   0.3932101  )
        24           H   tau(  24) = (   0.5865141   0.1873245   0.3939182  )
        25           C   tau(  25) = (   0.5552927   0.2457243   0.4215993  )
        26           C   tau(  26) = (   0.5170100   0.2730562   0.4221491  )
        27           H   tau(  27) = (   0.5147164   0.3006455   0.4458915  )
        28           C   tau(  28) = (   0.4818064   0.2639357   0.3933487  )
        29           H   tau(  29) = (   0.4519902   0.2848504   0.3947007  )
        30           C   tau(  30) = (   0.6052260   0.2932133   0.4568422  )
        31           H   tau(  31) = (   0.5892167   0.3224951   0.4410866  )
        32           C   tau(  32) = (   0.6428304   0.3024279   0.4860637  )
        33           C   tau(  33) = (   0.6683652   0.2673459   0.5040566  )
        34           H   tau(  34) = (   0.6592689   0.2330124   0.4959641  )
        35           C   tau(  35) = (   0.7045114   0.2767047   0.5312331  )
        36           H   tau(  36) = (   0.7249386   0.2502220   0.5455812  )
        37           C   tau(  37) = (   0.7151035   0.3211501   0.5401644  )
        38           C   tau(  38) = (   0.6901744   0.3565784   0.5232907  )
        39           H   tau(  39) = (   0.6983590   0.3909745   0.5317082  )
        40           C   tau(  40) = (   0.6540030   0.3468202   0.4958174  )
        41           H   tau(  41) = (   0.6341054   0.3739406   0.4816398  )
        42           C   tau(  42) = (   0.7881866   0.3482181   0.5522154  )
        43           F   tau(  43) = (   0.7820529   0.3916843   0.5401635  )
        44           F   tau(  44) = (   0.8186420   0.3469804   0.5848294  )
        45           F   tau(  45) = (   0.8055743   0.3269962   0.5158426  )
        46           C   tau(  46) = (   0.2142324   0.3622418   0.2361154  )
        47           F   tau(  47) = (   0.1915080   0.3248333   0.2476979  )
        48           F   tau(  48) = (   0.1898031   0.3879327   0.2087965  )
        49           F   tau(  49) = (   0.2202236   0.3855069   0.2747371  )

     --------------------------------------------
     DFT-D3 Dispersion Correction (3-body terms):
     --------------------------------------------
       Reference C6 values for interpolation:

         atom   Coordination number   C6
         H          0.912             6.05
         H          0.000            15.18
         C          0.000            98.23
         C          0.987            86.49
         C          1.998            58.72
         C          2.999            51.56
         C          3.984            36.41
         N          0.000            50.54
         N          0.994            44.25
         N          2.014            39.35
         N          2.990            31.16
         O          0.000            31.01
         O          0.993            25.63
         O          1.989            20.74
         F          0.000            19.38
         F          0.998            14.27

       Values used:

         atom   Coordination number  R0_AB[au]  C6      C8
         O          1.063            2.345     25.52    514.99
         O          2.096            2.345     20.78    419.30
         O          2.101            2.345     20.78    419.28
         N          2.141            2.478     38.89    857.96
         C          3.167            2.750     50.39   1457.30
         H          1.002            2.062      6.18     74.69
         C          3.139            2.750     50.62   1464.00
         H          1.002            2.062      6.18     74.70
         C          3.228            2.750     49.72   1437.93
         C          3.138            2.750     50.63   1464.35
         H          1.002            2.062      6.18     74.70
         C          3.178            2.750     50.28   1454.30
         H          1.002            2.062      6.18     74.70
         C          3.164            2.750     50.42   1458.15
         C          3.141            2.750     50.61   1463.68
         H          1.005            2.062      6.18     74.66
         C          3.102            2.750     50.87   1471.31
         H          1.003            2.062      6.18     74.69
         C          3.127            2.750     50.71   1466.48
         C          3.185            2.750     50.21   1452.26
         C          3.170            2.750     50.36   1456.64
         H          1.003            2.062      6.18     74.69
         C          3.166            2.750     50.39   1457.51
         H          1.002            2.062      6.18     74.69
         C          3.231            2.750     49.68   1436.86
         C          3.155            2.750     50.49   1460.24
         H          1.002            2.062      6.18     74.70
         C          3.156            2.750     50.48   1460.04
         H          1.003            2.062      6.18     74.69
         C          3.184            2.750     50.23   1452.62
         H          1.001            2.062      6.18     74.71
         C          3.183            2.750     50.23   1452.88
         C          3.173            2.750     50.33   1455.64
         H          1.003            2.062      6.18     74.69
         C          3.145            2.750     50.58   1462.78
         H          1.002            2.062      6.18     74.70
         C          3.232            2.750     49.67   1436.60
         C          3.139            2.750     50.62   1463.96
         H          1.002            2.062      6.18     74.69
         C          3.174            2.750     50.32   1455.32
         H          1.002            2.062      6.18     74.70
         C          4.072            2.750     36.55   1057.08
         F          1.076            2.173     14.31    244.92
         F          1.087            2.173     14.31    244.85
         F          1.075            2.173     14.31    244.93
         C          4.069            2.750     36.55   1057.16
         F          1.078            2.173     14.31    244.91
         F          1.081            2.173     14.31    244.89
         F          1.079            2.173     14.31    244.90

         Molecular C6 ( Ry / a.u.^6 ) =     60909.88


     number of k points=     1
                       cart. coord. in units 2pi/alat
        k(    1) = (   0.0000000   0.0000000   0.0000000), wk =   2.0000000

     Dense  grid:  8256194 G-vectors     FFT dimensions: ( 405, 243, 324)

     Smooth grid:  2088750 G-vectors     FFT dimensions: ( 256, 160, 216)

     Estimated max dynamical RAM per process >     143.13 MB

     Estimated total dynamical RAM >      16.77 GB

     Initial potential from superposition of free atoms

     starting charge     175.9988, renormalised to     176.0000

     negative rho (up, down):  1.130E-02 0.000E+00
     Starting wfcs are  151 randomized atomic wfcs

     total cpu time spent up to now is       17.6 secs

     Self-consistent Calculation

     iteration #  1     ecut=    50.00 Ry     beta= 0.70
     Davidson diagonalization with overlap
     ethr =  1.00E-02,  avg # of iterations =  3.0

     negative rho (up, down):  1.197E-03 0.000E+00

     total cpu time spent up to now is       46.5 secs

     total energy              =    -725.37763665 Ry
     estimated scf accuracy    <       3.65261059 Ry
     electrostatic embedding   =       0.00000000 Ry
     cavitation energy         =       0.10995668 Ry
     PV energy                 =      -0.14961624 Ry
     correction to one-el term =      -0.00000000 Ry

     iteration #  2     ecut=    50.00 Ry     beta= 0.70
     Davidson diagonalization with overlap
     ethr =  2.08E-03,  avg # of iterations =  4.0

     negative rho (up, down):  2.133E-04 0.000E+00

     total cpu time spent up to now is       73.0 secs

     total energy              =    -725.67852182 Ry
     estimated scf accuracy    <       1.30233837 Ry
     electrostatic embedding   =       0.00000000 Ry
     cavitation energy         =       0.11043400 Ry
     PV energy                 =      -0.15300941 Ry
     correction to one-el term =      -0.00000000 Ry

     iteration #  3     ecut=    50.00 Ry     beta= 0.70
     Davidson diagonalization with overlap
     ethr =  7.40E-04,  avg # of iterations =  6.0

     negative rho (up, down):  2.020E-05 0.000E+00

     add environment contribution to local potential
     Polarization accuracy = 8.9E-21, # of iterations =  66

     total cpu time spent up to now is      110.1 secs

     total energy              =    -725.66600916 Ry
     estimated scf accuracy    <       0.52252744 Ry
     electrostatic embedding   =       0.00000000 Ry
     cavitation energy         =       0.11012104 Ry
     PV energy                 =      -0.15231341 Ry
     correction to one-el term =      -0.00000000 Ry

     iteration #  4     ecut=    50.00 Ry     beta= 0.70
     Davidson diagonalization with overlap
     c_bands:  3 eigenvalues not converged
     ethr =  2.97E-04,  avg # of iterations = 20.0

     negative rho (up, down):  6.573E-06 0.000E+00

     add environment contribution to local potential
     Polarization accuracy = 8.5E-21, # of iterations =  73

     total cpu time spent up to now is      142.7 secs

     total energy              =    -725.70296340 Ry
     estimated scf accuracy    <       0.19539290 Ry
     electrostatic embedding   =      -0.11804256 Ry
     cavitation energy         =       0.10707507 Ry
     PV energy                 =      -0.14030712 Ry
     correction to one-el term =     -13.20333744 Ry

     iteration #  5     ecut=    50.00 Ry     beta= 0.70
     Davidson diagonalization with overlap
     c_bands:  5 eigenvalues not converged
     ethr =  1.11E-04,  avg # of iterations = 20.0

     negative rho (up, down):  1.331E-05 0.000E+00

     add environment contribution to local potential
     Polarization accuracy = 8.3E-21, # of iterations =  81

     total cpu time spent up to now is      177.2 secs

     total energy              =    -725.72675978 Ry
     estimated scf accuracy    <       0.09664741 Ry
     electrostatic embedding   =      -0.12932468 Ry
     cavitation energy         =       0.10384951 Ry
     PV energy                 =      -0.12880230 Ry
     correction to one-el term =     -14.14585053 Ry

     iteration #  6     ecut=    50.00 Ry     beta= 0.70
     Davidson diagonalization with overlap
     c_bands:  5 eigenvalues not converged
     ethr =  5.49E-05,  avg # of iterations = 20.0

     negative rho (up, down):  3.020E-02 0.000E+00

     add environment contribution to local potential
     Polarization accuracy = 9.9E-21, # of iterations =  88

     total cpu time spent up to now is      208.2 secs

     total energy              =    -725.72571364 Ry
     estimated scf accuracy    <       0.05960235 Ry
     electrostatic embedding   =      -0.12434703 Ry
     cavitation energy         =       0.10211364 Ry
     PV energy                 =      -0.12301970 Ry
     correction to one-el term =     -13.57470093 Ry

     iteration #  7     ecut=    50.00 Ry     beta= 0.70
     Davidson diagonalization with overlap
     c_bands:  3 eigenvalues not converged
     ethr =  3.39E-05,  avg # of iterations = 20.0

     negative rho (up, down):  1.498E-01 0.000E+00

     add environment contribution to local potential
     Polarization accuracy = 6.5E-21, # of iterations =  84

     total cpu time spent up to now is      236.7 secs

     total energy              =    -725.74168111 Ry
     estimated scf accuracy    <       0.03205056 Ry
     electrostatic embedding   =      -0.11269688 Ry
     cavitation energy         =       0.10114442 Ry
     PV energy                 =      -0.12062122 Ry
     correction to one-el term =     -11.64629559 Ry

     iteration #  8     ecut=    50.00 Ry     beta= 0.70
     Davidson diagonalization with overlap
     c_bands:  3 eigenvalues not converged
     ethr =  1.82E-05,  avg # of iterations = 20.0

     negative rho (up, down):  1.782E-01 0.000E+00

     add environment contribution to local potential
     Polarization accuracy = 8.5E-21, # of iterations =  84

     total cpu time spent up to now is      264.7 secs

     total energy              =    -725.75979568 Ry
     estimated scf accuracy    <       0.01524325 Ry
     electrostatic embedding   =      -0.08445724 Ry
     cavitation energy         =       0.10206602 Ry
     PV energy                 =      -0.12520735 Ry
     correction to one-el term =      -7.44162714 Ry

     iteration #  9     ecut=    50.00 Ry     beta= 0.70
     Davidson diagonalization with overlap
     c_bands:  4 eigenvalues not converged
     ethr =  8.66E-06,  avg # of iterations = 20.0

     negative rho (up, down):  1.588E-01 0.000E+00

     add environment contribution to local potential
     Polarization accuracy = 9.8E-21, # of iterations =  80

     total cpu time spent up to now is      293.9 secs

     total energy              =    -725.76668147 Ry
     estimated scf accuracy    <       0.00757181 Ry
     electrostatic embedding   =      -0.07748232 Ry
     cavitation energy         =       0.10199757 Ry
     PV energy                 =      -0.12486029 Ry
     correction to one-el term =      -5.08574093 Ry

     iteration # 10     ecut=    50.00 Ry     beta= 0.70
     Davidson diagonalization with overlap
     c_bands:  5 eigenvalues not converged
     ethr =  4.30E-06,  avg # of iterations = 20.0

     negative rho (up, down):  1.115E-01 0.000E+00

     add environment contribution to local potential
     Polarization accuracy = 5.0E-21, # of iterations =  79

     total cpu time spent up to now is      324.1 secs

     total energy              =    -725.77060211 Ry
     estimated scf accuracy    <       0.00413857 Ry
     electrostatic embedding   =      -0.07073157 Ry
     cavitation energy         =       0.10252403 Ry
     PV energy                 =      -0.12659168 Ry
     correction to one-el term =      -3.33071261 Ry

     iteration # 11     ecut=    50.00 Ry     beta= 0.70
     Davidson diagonalization with overlap
     c_bands:  3 eigenvalues not converged
     ethr =  2.35E-06,  avg # of iterations = 20.0

     negative rho (up, down):  7.928E-02 0.000E+00

     add environment contribution to local potential
     Polarization accuracy = 6.9E-21, # of iterations =  80

     total cpu time spent up to now is      351.9 secs

     total energy              =    -725.77189929 Ry
     estimated scf accuracy    <       0.00214955 Ry
     electrostatic embedding   =      -0.06440200 Ry
     cavitation energy         =       0.10291059 Ry
     PV energy                 =      -0.12784464 Ry
     correction to one-el term =      -2.44141342 Ry

     iteration # 12     ecut=    50.00 Ry     beta= 0.70
     Davidson diagonalization with overlap
     c_bands:  4 eigenvalues not converged
     ethr =  1.22E-06,  avg # of iterations = 20.0

     negative rho (up, down):  6.325E-02 0.000E+00

     add environment contribution to local potential
     Polarization accuracy = 8.5E-21, # of iterations =  80

     total cpu time spent up to now is      378.5 secs

     total energy              =    -725.77288866 Ry
     estimated scf accuracy    <       0.00094352 Ry
     electrostatic embedding   =      -0.06146236 Ry
     cavitation energy         =       0.10291169 Ry
     PV energy                 =      -0.12732374 Ry
     correction to one-el term =      -1.57397286 Ry

     iteration # 13     ecut=    50.00 Ry     beta= 0.70
     Davidson diagonalization with overlap
     c_bands:  2 eigenvalues not converged
     ethr =  5.36E-07,  avg # of iterations = 20.0

     negative rho (up, down):  3.964E-02 0.000E+00

     add environment contribution to local potential
     Polarization accuracy = 4.1E-21, # of iterations =  80

     total cpu time spent up to now is      405.0 secs

     total energy              =    -725.77297262 Ry
     estimated scf accuracy    <       0.00053153 Ry
     electrostatic embedding   =      -0.06029875 Ry
     cavitation energy         =       0.10291696 Ry
     PV energy                 =      -0.12732809 Ry
     correction to one-el term =      -1.29153730 Ry

     iteration # 14     ecut=    50.00 Ry     beta= 0.70
     Davidson diagonalization with overlap
     c_bands:  2 eigenvalues not converged
     ethr =  3.02E-07,  avg # of iterations = 20.0

     negative rho (up, down):  3.051E-02 0.000E+00

     add environment contribution to local potential
     Polarization accuracy = 8.2E-21, # of iterations =  79

     total cpu time spent up to now is      431.8 secs

     total energy              =    -725.77315673 Ry
     estimated scf accuracy    <       0.00029317 Ry
     electrostatic embedding   =      -0.05893827 Ry
     cavitation energy         =       0.10293433 Ry
     PV energy                 =      -0.12738389 Ry
     correction to one-el term =      -1.14548715 Ry

     iteration # 15     ecut=    50.00 Ry     beta= 0.70
     Davidson diagonalization with overlap
     c_bands:  2 eigenvalues not converged
     ethr =  1.67E-07,  avg # of iterations = 20.0

     negative rho (up, down):  2.341E-02 0.000E+00

     add environment contribution to local potential
     Polarization accuracy = 6.5E-21, # of iterations =  80

     total cpu time spent up to now is      457.9 secs

     total energy              =    -725.77316353 Ry
     estimated scf accuracy    <       0.00016343 Ry
     electrostatic embedding   =      -0.05876683 Ry
     cavitation energy         =       0.10292042 Ry
     PV energy                 =      -0.12730085 Ry
     correction to one-el term =      -1.12363895 Ry

     iteration # 16     ecut=    50.00 Ry     beta= 0.70
     Davidson diagonalization with overlap
     c_bands:  2 eigenvalues not converged
     ethr =  9.29E-08,  avg # of iterations = 20.0

     negative rho (up, down):  2.147E-02 0.000E+00

     add environment contribution to local potential
     Polarization accuracy = 5.1E-21, # of iterations =  80

     total cpu time spent up to now is      485.6 secs

     total energy              =    -725.77319068 Ry
     estimated scf accuracy    <       0.00008393 Ry
     electrostatic embedding   =      -0.05839703 Ry
     cavitation energy         =       0.10291405 Ry
     PV energy                 =      -0.12736982 Ry
     correction to one-el term =      -1.09275359 Ry

     iteration # 17     ecut=    50.00 Ry     beta= 0.70
     Davidson diagonalization with overlap
     c_bands:  2 eigenvalues not converged
     ethr =  4.77E-08,  avg # of iterations = 20.0

     negative rho (up, down):  1.935E-02 0.000E+00

     add environment contribution to local potential
     Polarization accuracy = 4.4E-21, # of iterations =  79

     total cpu time spent up to now is      509.6 secs

     total energy              =    -725.77320473 Ry
     estimated scf accuracy    <       0.00004431 Ry
     electrostatic embedding   =      -0.05823096 Ry
     cavitation energy         =       0.10291667 Ry
     PV energy                 =      -0.12741157 Ry
     correction to one-el term =      -1.07404549 Ry

     iteration # 18     ecut=    50.00 Ry     beta= 0.70
     Davidson diagonalization with overlap
     c_bands:  1 eigenvalues not converged
     ethr =  2.52E-08,  avg # of iterations = 20.0

     negative rho (up, down):  1.704E-02 0.000E+00

     add environment contribution to local potential
     Polarization accuracy = 7.0E-21, # of iterations =  79

     total cpu time spent up to now is      533.2 secs

     total energy              =    -725.77320740 Ry
     estimated scf accuracy    <       0.00002390 Ry
     electrostatic embedding   =      -0.05834927 Ry
     cavitation energy         =       0.10292466 Ry
     PV energy                 =      -0.12745098 Ry
     correction to one-el term =      -1.13504611 Ry

     iteration # 19     ecut=    50.00 Ry     beta= 0.70
     Davidson diagonalization with overlap
     c_bands:  1 eigenvalues not converged
     ethr =  1.36E-08,  avg # of iterations = 20.0

     negative rho (up, down):  1.623E-02 0.000E+00

     add environment contribution to local potential
     Polarization accuracy = 5.0E-21, # of iterations =  79

     total cpu time spent up to now is      558.7 secs

     total energy              =    -725.77321550 Ry
     estimated scf accuracy    <       0.00001057 Ry
     electrostatic embedding   =      -0.05839950 Ry
     cavitation energy         =       0.10291393 Ry
     PV energy                 =      -0.12741463 Ry
     correction to one-el term =      -1.15992382 Ry

     iteration # 20     ecut=    50.00 Ry     beta= 0.70
     Davidson diagonalization with overlap
     ethr =  6.01E-09,  avg # of iterations = 20.0

     negative rho (up, down):  1.551E-02 0.000E+00

     add environment contribution to local potential
     Polarization accuracy = 7.0E-21, # of iterations =  78

     total cpu time spent up to now is      590.2 secs

     total energy              =    -725.77321692 Ry
     estimated scf accuracy    <       0.00000609 Ry
     electrostatic embedding   =      -0.05839149 Ry
     cavitation energy         =       0.10291131 Ry
     PV energy                 =      -0.12740189 Ry
     correction to one-el term =      -1.16818261 Ry

     iteration # 21     ecut=    50.00 Ry     beta= 0.70
     Davidson diagonalization with overlap
     ethr =  3.46E-09,  avg # of iterations =  2.0

     negative rho (up, down):  1.506E-02 0.000E+00

     add environment contribution to local potential
     Polarization accuracy = 9.5E-21, # of iterations =  79

     total cpu time spent up to now is      619.9 secs

     total energy              =    -725.77321905 Ry
     estimated scf accuracy    <       0.00000265 Ry
     electrostatic embedding   =      -0.05830580 Ry
     cavitation energy         =       0.10291361 Ry
     PV energy                 =      -0.12740747 Ry
     correction to one-el term =      -1.17404760 Ry

     iteration # 22     ecut=    50.00 Ry     beta= 0.70
     Davidson diagonalization with overlap
     ethr =  1.51E-09,  avg # of iterations =  5.0

     negative rho (up, down):  1.479E-02 0.000E+00

     add environment contribution to local potential
     Polarization accuracy = 7.9E-21, # of iterations =  79

     total cpu time spent up to now is      649.8 secs

     total energy              =    -725.77322041 Ry
     estimated scf accuracy    <       0.00000130 Ry
     electrostatic embedding   =      -0.05830576 Ry
     cavitation energy         =       0.10291393 Ry
     PV energy                 =      -0.12740555 Ry
     correction to one-el term =      -1.18477628 Ry

     iteration # 23     ecut=    50.00 Ry     beta= 0.70
     Davidson diagonalization with overlap
     ethr =  7.40E-10,  avg # of iterations =  4.0

     negative rho (up, down):  1.465E-02 0.000E+00

     add environment contribution to local potential
     Polarization accuracy = 4.1E-21, # of iterations =  79

     total cpu time spent up to now is      677.7 secs

     total energy              =    -725.77322091 Ry
     estimated scf accuracy    <       0.00000072 Ry
     electrostatic embedding   =      -0.05834273 Ry
     cavitation energy         =       0.10291639 Ry
     PV energy                 =      -0.12741279 Ry
     correction to one-el term =      -1.19424948 Ry

     iteration # 24     ecut=    50.00 Ry     beta= 0.70
     Davidson diagonalization with overlap
     ethr =  4.07E-10,  avg # of iterations =  5.0

     negative rho (up, down):  1.425E-02 0.000E+00

     add environment contribution to local potential
     Polarization accuracy = 6.6E-21, # of iterations =  79

     total cpu time spent up to now is      712.3 secs

     total energy              =    -725.77322095 Ry
     estimated scf accuracy    <       0.00000044 Ry
     electrostatic embedding   =      -0.05835622 Ry
     cavitation energy         =       0.10291711 Ry
     PV energy                 =      -0.12741382 Ry
     correction to one-el term =      -1.19882993 Ry

     iteration # 25     ecut=    50.00 Ry     beta= 0.70
     Davidson diagonalization with overlap
     ethr =  2.50E-10,  avg # of iterations =  2.0

     negative rho (up, down):  1.397E-02 0.000E+00

     add environment contribution to local potential
     Polarization accuracy = 4.9E-21, # of iterations =  79

     total cpu time spent up to now is      736.5 secs

     total energy              =    -725.77322102 Ry
     estimated scf accuracy    <       0.00000024 Ry
     electrostatic embedding   =      -0.05841859 Ry
     cavitation energy         =       0.10291507 Ry
     PV energy                 =      -0.12740558 Ry
     correction to one-el term =      -1.20966719 Ry

     iteration # 26     ecut=    50.00 Ry     beta= 0.70
     Davidson diagonalization with overlap
     ethr =  1.36E-10,  avg # of iterations =  4.0

     negative rho (up, down):  1.383E-02 0.000E+00

     add environment contribution to local potential
     Polarization accuracy = 4.3E-21, # of iterations =  79

     total cpu time spent up to now is      771.4 secs

     total energy              =    -725.77322106 Ry
     estimated scf accuracy    <       0.00000014 Ry
     electrostatic embedding   =      -0.05845303 Ry
     cavitation energy         =       0.10291395 Ry
     PV energy                 =      -0.12740249 Ry
     correction to one-el term =      -1.21823923 Ry

     iteration # 27     ecut=    50.00 Ry     beta= 0.70
     Davidson diagonalization with overlap
     ethr =  8.11E-11,  avg # of iterations =  5.0

     negative rho (up, down):  1.394E-02 0.000E+00

     the potential shift due to the Gaussian-smeared nuclei is    -0.0430 ev

     total cpu time spent up to now is      775.3 secs

     End of self-consistent calculation

          k = 0.0000 0.0000 0.0000 (261031 PWs)   bands (ev):

   -33.5626 -33.5615 -31.2754 -31.2140 -30.9857 -30.9686 -28.0507 -27.8750
   -25.7808 -23.7290 -21.8747 -21.8681 -21.3456 -20.2279 -19.7792 -19.1381
   -18.9942 -18.9583 -18.7191 -18.6857 -17.8717 -17.5818 -16.7276 -16.3699
   -15.9596 -15.6697 -15.6643 -15.2532 -15.2016 -15.1181 -15.0774 -15.0005
   -14.9734 -14.5583 -14.2282 -13.9741 -13.3975 -13.0610 -12.7781 -12.5211
   -12.1538 -11.8964 -11.8688 -11.6497 -11.5902 -11.4827 -11.4252 -11.3942
   -11.3426 -11.2458 -11.0269 -10.9924 -10.9793 -10.9282 -10.7464 -10.7069
   -10.6874 -10.6355 -10.4459 -10.3982 -10.3424 -10.2202 -10.1667 -10.0303
    -9.9281  -9.9201  -9.8148  -9.6393  -9.5627  -9.4710  -9.3400  -9.1714
    -9.0204  -8.9393  -8.7433  -8.5249  -8.2665  -8.1044  -8.0304  -7.7034
    -7.1258  -6.8329  -6.8082  -6.6496  -6.3650  -6.0654  -5.8977  -5.7440
    -3.3615  -2.7724  -1.7603  -1.6577  -1.5878  -1.4589  -0.7325  -0.6042
    -0.4905  -0.3689  -0.2771  -0.1737

     highest occupied, lowest unoccupied level (ev):    -5.7440   -3.3615

!    total energy              =    -725.77322108 Ry
     estimated scf accuracy    <       0.00000009 Ry

     The total energy is the sum of the following terms:
     one-electron contribution =   -7194.23451427 Ry
     hartree contribution      =    3620.77644057 Ry
     xc contribution           =    -206.58667036 Ry
     ewald contribution        =    3055.70003761 Ry
     DFT-D3 Dispersion         =      -0.12365034 Ry
     electrostatic embedding   =      -0.05846790 Ry
     cavitation energy         =       0.10291285 Ry
     PV energy                 =      -0.12740034 Ry
     correction to one-el term =      -1.22190890 Ry

     convergence has been achieved in  27 iterations

     Writing all to output data dir ./outdir/4amp34iso.save/

     init_run     :     16.46s CPU     17.07s WALL (       1 calls)
     electrons    :    619.99s CPU    758.36s WALL (       1 calls)

     Called by init_run:
     wfcinit      :      0.73s CPU      0.79s WALL (       1 calls)
     potinit      :      3.92s CPU      4.08s WALL (       1 calls)
     hinit0       :      4.29s CPU      4.37s WALL (       1 calls)

     Called by electrons:
     c_bands      :     54.97s CPU     55.39s WALL (      27 calls)
     sum_band     :     19.95s CPU     22.87s WALL (      27 calls)
     v_of_rho     :      7.50s CPU      8.67s WALL (      28 calls)
     newd         :     10.26s CPU     11.34s WALL (      28 calls)
     mix_rho      :    274.28s CPU    379.44s WALL (      27 calls)
     energy_dftd3 :      0.00s CPU      0.00s WALL (       1 calls)

     Called by c_bands:
     init_us_2    :      0.36s CPU      0.38s WALL (      55 calls)
     init_us_2:cp :      0.36s CPU      0.38s WALL (      55 calls)
     regterg      :     54.46s CPU     54.80s WALL (      27 calls)

     Called by *egterg:
     rdiaghg      :      4.78s CPU      4.85s WALL (     407 calls)
     h_psi        :     35.94s CPU     36.19s WALL (     408 calls)
     s_psi        :      2.94s CPU      2.96s WALL (     408 calls)
     g_psi        :      0.06s CPU      0.06s WALL (     380 calls)

     Called by h_psi:
     h_psi:calbec :      4.30s CPU      4.35s WALL (     408 calls)
     vloc_psi     :     28.53s CPU     28.72s WALL (     408 calls)
     add_vuspsi   :      2.90s CPU      2.92s WALL (     408 calls)

     General routines
     calbec       :      5.19s CPU      5.24s WALL (     435 calls)
     fft          :      9.49s CPU     11.46s WALL (     307 calls)
     ffts         :    165.91s CPU    268.88s WALL (   33171 calls)
     fftw         :     25.29s CPU     25.43s WALL (    9720 calls)
     interpolate  :      1.45s CPU      1.70s WALL (      28 calls)

     Parallel routines

     Environ routines

     PWSCF        :  10m37.16s CPU  12m57.63s WALL


   This run was terminated on:  18:59:44   9Mar2024

=------------------------------------------------------------------------------=
   JOB DONE.
=------------------------------------------------------------------------------=
