
     Program PWSCF v.7.2 starts on  9Mar2024 at 17:18:38

     This program is part of the open-source Quantum ESPRESSO suite
     for quantum simulation of materials; please cite
         "P. Giannozzi et al., J. Phys.:Condens. Matter 21 395502 (2009);
         "P. Giannozzi et al., J. Phys.:Condens. Matter 29 465901 (2017);
         "P. Giannozzi et al., J. Chem. Phys. 152 154105 (2020);
          URL http://www.quantum-espresso.org",
     in publications or presentations arising from this work. More details at
     http://www.quantum-espresso.org/quote

     Parallel version (MPI), running on   120 processors

     MPI processes distributed on     1 nodes
     454046 MiB available memory on the printing compute node when the environment starts

     Reading input from 4amp34iso_relax.in

     Current dimensions of program PWSCF are:
     Max number of different atomic species (ntypx) = 10
     Max number of k-points (npk) =  40000
     Max angular momentum in pseudopotentials (lmaxx) =  4
     file F.pbe-n-rrkjus_psl.1.0.0.UPF: wavefunction(s)  2S renormalized

     IMPORTANT: XC functional enforced from input :
     Exchange-correlation= PBE
                           (   1   4   3   4   0   0   0)
     Any further DFT definition will be discarded
     Please, verify this is what you really want


     gamma-point specific algorithms are used

     R & G space division:  proc/nbgrp/npool/nimage =     120
     Subspace diagonalization in iterative solution of the eigenvalue problem:
     a serial algorithm will be used


     Parallelization info
     --------------------
     sticks:   dense  smooth     PW     G-vecs:    dense   smooth      PW
     Min         638     254     63               137594    34794    4332
     Max         640     256     66               137612    34824    4360
     Sum       76729   30707   7687             16512387  4177499  522061

     Using Slab Decomposition



     bravais-lattice index     =            0
     lattice parameter (alat)  =      56.6918  a.u.
     unit-cell volume          =   87458.4151 (a.u.)^3
     number of atoms/cell      =           49
     number of atomic types    =            5
     number of electrons       =       176.00
     number of Kohn-Sham states=           88
     kinetic-energy cutoff     =      50.0000  Ry
     charge density cutoff     =     500.0000  Ry
     scf convergence threshold =      1.0E-06
     mixing beta               =       0.7000
     number of iterations used =            8  local-TF  mixing
     energy convergence thresh.=      1.0E-03
     force convergence thresh. =      1.0E-02
     Exchange-correlation= PBE
                           (   1   4   3   4   0   0   0)
     nstep                     =           50

     Assuming isolated system, Martyna-Tuckerman method


     celldm(1)=  56.691784  celldm(2)=   0.000000  celldm(3)=   0.000000
     celldm(4)=   0.000000  celldm(5)=   0.000000  celldm(6)=   0.000000

     crystal axes: (cart. coord. in units of alat)
               a(1) = (   1.000000   0.000000   0.000000 )
               a(2) = (   0.000000   0.600000   0.000000 )
               a(3) = (   0.000000   0.000000   0.800000 )

     reciprocal axes: (cart. coord. in units 2 pi/alat)
               b(1) = (  1.000000  0.000000  0.000000 )
               b(2) = (  0.000000  1.666667  0.000000 )
               b(3) = (  0.000000  0.000000  1.250000 )


     PseudoPot. # 1 for O  read from file:
     /home/cyk/q-e-qe-7.2/pp/O.pbe-n-rrkjus_psl.1.0.0.UPF
     MD5 check sum: 91400c9766925bcf19f520983a725ff0
     Pseudo is Ultrasoft + core correction, Zval =  6.0
     Generated using &quot;atomic&quot; code by A. Dal Corso  v.6.3MaX
     Using radial grid of 1095 points,  4 beta functions with:
                l(1) =   0
                l(2) =   0
                l(3) =   1
                l(4) =   1
     Q(r) pseudized with 0 coefficients


     PseudoPot. # 2 for N  read from file:
     /home/cyk/q-e-qe-7.2/pp/N.pbe-n-rrkjus_psl.1.0.0.UPF
     MD5 check sum: ada94e3ed05223de5319d0572dc76806
     Pseudo is Ultrasoft + core correction, Zval =  5.0
     Generated using &quot;atomic&quot; code by A. Dal Corso  v.6.3MaX
     Using radial grid of 1085 points,  4 beta functions with:
                l(1) =   0
                l(2) =   0
                l(3) =   1
                l(4) =   1
     Q(r) pseudized with 0 coefficients


     PseudoPot. # 3 for C  read from file:
     /home/cyk/q-e-qe-7.2/pp/C.pbe-n-rrkjus_psl.1.0.0.UPF
     MD5 check sum: 1fdd950c42eb37d8afe3dd2f8d12311e
     Pseudo is Ultrasoft + core correction, Zval =  4.0
     Generated using &quot;atomic&quot; code by A. Dal Corso  v.6.3MaX
     Using radial grid of 1073 points,  4 beta functions with:
                l(1) =   0
                l(2) =   0
                l(3) =   1
                l(4) =   1
     Q(r) pseudized with 0 coefficients


     PseudoPot. # 4 for H  read from file:
     /home/cyk/q-e-qe-7.2/pp/H.pbe-rrkjus_psl.1.0.0.UPF
     MD5 check sum: 3f4114867bd07edc7f1424d066fc1888
     Pseudo is Ultrasoft, Zval =  1.0
     Generated using &quot;atomic&quot; code by A. Dal Corso  v.6.3MaX
     Using radial grid of  929 points,  2 beta functions with:
                l(1) =   0
                l(2) =   0
     Q(r) pseudized with 0 coefficients


     PseudoPot. # 5 for F  read from file:
     /home/cyk/q-e-qe-7.2/pp/F.pbe-n-rrkjus_psl.1.0.0.UPF
     MD5 check sum: 54b1cd0d2e22d705595f13732da1ccc9
     Pseudo is Ultrasoft + core correction, Zval =  7.0
     Generated using &quot;atomic&quot; code by A. Dal Corso  v.6.3MaX
     Using radial grid of 1105 points,  4 beta functions with:
                l(1) =   0
                l(2) =   0
                l(3) =   1
                l(4) =   1
     Q(r) pseudized with 0 coefficients


     atomic species   valence    mass     pseudopotential
        O              6.00    16.00000     O ( 1.00)
        N              5.00    14.00000     N ( 1.00)
        C              4.00    12.00000     C ( 1.00)
        H              1.00     1.00000     H ( 1.00)
        F              7.00    19.00000     F ( 1.00)

     No symmetry found



   Cartesian axes

     site n.     atom                  positions (alat units)
         1           O   tau(   1) = (   0.4445425   0.1777926   0.3180377  )
         2           O   tau(   2) = (   0.2524821   0.3515776   0.2139171  )
         3           O   tau(   3) = (   0.7506571   0.3290937   0.5693053  )
         4           N   tau(   4) = (   0.5921660   0.2535397   0.4490201  )
         5           C   tau(   5) = (   0.3455810   0.3154661   0.2841271  )
         6           H   tau(   6) = (   0.3697181   0.3300862   0.3065938  )
         7           C   tau(   7) = (   0.3138619   0.3426422   0.2647318  )
         8           H   tau(   8) = (   0.3127749   0.3780276   0.2715094  )
         9           C   tau(   9) = (   0.2830798   0.3240325   0.2357725  )
        10           C   tau(  10) = (   0.2833152   0.2790764   0.2259781  )
        11           H   tau(  11) = (   0.2588943   0.2656979   0.2030773  )
        12           C   tau(  12) = (   0.3153528   0.2522297   0.2455749  )
        13           H   tau(  13) = (   0.3161067   0.2169377   0.2379753  )
        14           C   tau(  14) = (   0.3470092   0.2698230   0.2747942  )
        15           C   tau(  15) = (   0.3807328   0.2398938   0.2933349  )
        16           H   tau(  16) = (   0.3785988   0.2051865   0.2832127  )
        17           C   tau(  17) = (   0.4143968   0.2502223   0.3204672  )
        18           H   tau(  18) = (   0.4198398   0.2839372   0.3320224  )
        19           C   tau(  19) = (   0.4469104   0.2151968   0.3333686  )
        20           C   tau(  20) = (   0.4838518   0.2272416   0.3644349  )
        21           C   tau(  21) = (   0.5214099   0.1997873   0.3651873  )
        22           H   tau(  22) = (   0.5219764   0.1711054   0.3433257  )
        23           C   tau(  23) = (   0.5566108   0.2089379   0.3932561  )
        24           H   tau(  24) = (   0.5859202   0.1879166   0.3940130  )
        25           C   tau(  25) = (   0.5552321   0.2459997   0.4213797  )
        26           C   tau(  26) = (   0.5171523   0.2726864   0.4218709  )
        27           H   tau(  27) = (   0.5146952   0.3000565   0.4452690  )
        28           C   tau(  28) = (   0.4820249   0.2635042   0.3933517  )
        29           H   tau(  29) = (   0.4526180   0.2843648   0.3947072  )
        30           C   tau(  30) = (   0.6053115   0.2929280   0.4567066  )
        31           H   tau(  31) = (   0.5893263   0.3219941   0.4413102  )
        32           C   tau(  32) = (   0.6433202   0.3023971   0.4859963  )
        33           C   tau(  33) = (   0.6686595   0.2678286   0.5040840  )
        34           H   tau(  34) = (   0.6596006   0.2338345   0.4961767  )
        35           C   tau(  35) = (   0.7047092   0.2772050   0.5310845  )
        36           H   tau(  36) = (   0.7250983   0.2510600   0.5452587  )
        37           C   tau(  37) = (   0.7150887   0.3212535   0.5402969  )
        38           C   tau(  38) = (   0.6902098   0.3561583   0.5233749  )
        39           H   tau(  39) = (   0.6987956   0.3901611   0.5315945  )
        40           C   tau(  40) = (   0.6544361   0.3463554   0.4958125  )
        41           H   tau(  41) = (   0.6347672   0.3733188   0.4819694  )
        42           C   tau(  42) = (   0.7876880   0.3480036   0.5525258  )
        43           F   tau(  43) = (   0.7814181   0.3908398   0.5410901  )
        44           F   tau(  44) = (   0.8189645   0.3465183   0.5835803  )
        45           F   tau(  45) = (   0.8024536   0.3268994   0.5161731  )
        46           C   tau(  46) = (   0.2147918   0.3620339   0.2358608  )
        47           F   tau(  47) = (   0.1912684   0.3258938   0.2473432  )
        48           F   tau(  48) = (   0.1900155   0.3871293   0.2093545  )
        49           F   tau(  49) = (   0.2228061   0.3849067   0.2734128  )

     --------------------------------------------
     DFT-D3 Dispersion Correction (3-body terms):
     --------------------------------------------
       Reference C6 values for interpolation:

         atom   Coordination number   C6
         H          0.912             6.05
         H          0.000            15.18
         C          0.000            98.23
         C          0.987            86.49
         C          1.998            58.72
         C          2.999            51.56
         C          3.984            36.41
         N          0.000            50.54
         N          0.994            44.25
         N          2.014            39.35
         N          2.990            31.16
         O          0.000            31.01
         O          0.993            25.63
         O          1.989            20.74
         F          0.000            19.38
         F          0.998            14.27

       Values used:

         atom   Coordination number  R0_AB[au]  C6      C8
         O          1.070            2.345     25.51    514.74
         O          2.112            2.345     20.77    419.22
         O          2.113            2.345     20.77    419.21
         N          2.142            2.478     38.89    857.86
         C          3.185            2.750     50.21   1452.24
         H          1.005            2.062      6.18     74.67
         C          3.157            2.750     50.47   1459.77
         H          1.004            2.062      6.18     74.67
         C          3.253            2.750     49.36   1427.67
         C          3.156            2.750     50.49   1460.19
         H          1.004            2.062      6.18     74.67
         C          3.196            2.750     50.10   1449.02
         H          1.004            2.062      6.18     74.67
         C          3.175            2.750     50.31   1455.18
         C          3.143            2.750     50.59   1463.21
         H          1.007            2.062      6.17     74.64
         C          3.104            2.750     50.86   1470.88
         H          1.005            2.062      6.18     74.67
         C          3.130            2.750     50.69   1465.95
         C          3.196            2.750     50.10   1448.86
         C          3.186            2.750     50.20   1451.97
         H          1.005            2.062      6.18     74.66
         C          3.183            2.750     50.24   1452.99
         H          1.004            2.062      6.18     74.67
         C          3.244            2.750     49.49   1431.46
         C          3.174            2.750     50.32   1455.34
         H          1.004            2.062      6.18     74.67
         C          3.174            2.750     50.32   1455.38
         H          1.005            2.062      6.18     74.67
         C          3.188            2.750     50.19   1451.58
         H          1.003            2.062      6.18     74.69
         C          3.193            2.750     50.14   1450.04
         C          3.189            2.750     50.18   1451.19
         H          1.005            2.062      6.18     74.66
         C          3.160            2.750     50.45   1459.04
         H          1.004            2.062      6.18     74.67
         C          3.252            2.750     49.39   1428.31
         C          3.156            2.750     50.48   1460.11
         H          1.005            2.062      6.18     74.67
         C          3.190            2.750     50.16   1450.82
         H          1.004            2.062      6.18     74.67
         C          4.082            2.750     36.54   1056.77
         F          1.093            2.173     14.31    244.82
         F          1.097            2.173     14.31    244.80
         F          1.095            2.173     14.31    244.81
         C          4.084            2.750     36.54   1056.71
         F          1.094            2.173     14.31    244.82
         F          1.097            2.173     14.31    244.80
         F          1.094            2.173     14.31    244.82

         Molecular C6 ( Ry / a.u.^6 ) =     60797.25


     number of k points=     1
                       cart. coord. in units 2pi/alat
        k(    1) = (   0.0000000   0.0000000   0.0000000), wk =   2.0000000

     Dense  grid:  8256194 G-vectors     FFT dimensions: ( 405, 243, 324)

     Smooth grid:  2088750 G-vectors     FFT dimensions: ( 256, 160, 216)

     Estimated max dynamical RAM per process >     191.56 MB

     Estimated total dynamical RAM >      22.45 GB

     Initial potential from superposition of free atoms

     starting charge     175.9988, renormalised to     176.0000

     negative rho (up, down):  1.131E-02 0.000E+00
     Starting wfcs are  151 randomized atomic wfcs

     total cpu time spent up to now is       14.1 secs

     Self-consistent Calculation

     iteration #  1     ecut=    50.00 Ry     beta= 0.70
     Davidson diagonalization with overlap
     ethr =  1.00E-02,  avg # of iterations =  3.0

     negative rho (up, down):  1.072E-03 0.000E+00

     total cpu time spent up to now is       50.1 secs

     total energy              =    -725.35823503 Ry
     estimated scf accuracy    <       3.75134797 Ry

     iteration #  2     ecut=    50.00 Ry     beta= 0.70
     Davidson diagonalization with overlap
     ethr =  2.13E-03,  avg # of iterations =  4.0

     negative rho (up, down):  1.769E-04 0.000E+00

     total cpu time spent up to now is       87.0 secs

     total energy              =    -725.54999784 Ry
     estimated scf accuracy    <       1.40951525 Ry

     iteration #  3     ecut=    50.00 Ry     beta= 0.70
     Davidson diagonalization with overlap
     ethr =  8.01E-04,  avg # of iterations =  5.0

     negative rho (up, down):  3.390E-05 0.000E+00

     total cpu time spent up to now is      113.8 secs

     total energy              =    -725.70079034 Ry
     estimated scf accuracy    <       0.60076991 Ry

     iteration #  4     ecut=    50.00 Ry     beta= 0.70
     Davidson diagonalization with overlap
     ethr =  3.41E-04,  avg # of iterations =  4.0

     negative rho (up, down):  1.158E-05 0.000E+00

     total cpu time spent up to now is      136.3 secs

     total energy              =    -725.63259654 Ry
     estimated scf accuracy    <       0.32623528 Ry

     iteration #  5     ecut=    50.00 Ry     beta= 0.70
     Davidson diagonalization with overlap
     ethr =  1.85E-04,  avg # of iterations =  6.0

     negative rho (up, down):  2.481E-06 0.000E+00

     total cpu time spent up to now is      153.2 secs

     total energy              =    -725.66366143 Ry
     estimated scf accuracy    <       0.21498935 Ry

     iteration #  6     ecut=    50.00 Ry     beta= 0.70
     Davidson diagonalization with overlap
     ethr =  1.22E-04,  avg # of iterations =  7.0

     negative rho (up, down):  4.302E-06 0.000E+00

     total cpu time spent up to now is      174.5 secs

     total energy              =    -725.69202810 Ry
     estimated scf accuracy    <       0.15474871 Ry

     iteration #  7     ecut=    50.00 Ry     beta= 0.70
     Davidson diagonalization with overlap
     ethr =  8.79E-05,  avg # of iterations =  2.0

     negative rho (up, down):  6.834E-02 0.000E+00

     total cpu time spent up to now is      188.4 secs

     total energy              =    -725.66771342 Ry
     estimated scf accuracy    <       0.08415046 Ry

     iteration #  8     ecut=    50.00 Ry     beta= 0.70
     Davidson diagonalization with overlap
     ethr =  4.78E-05,  avg # of iterations =  7.0

     negative rho (up, down):  8.108E-02 0.000E+00

     total cpu time spent up to now is      205.6 secs

     total energy              =    -725.68553344 Ry
     estimated scf accuracy    <       0.04179233 Ry

     iteration #  9     ecut=    50.00 Ry     beta= 0.70
     Davidson diagonalization with overlap
     ethr =  2.37E-05,  avg # of iterations =  5.0

     negative rho (up, down):  1.933E-01 0.000E+00

     total cpu time spent up to now is      221.1 secs

     total energy              =    -725.68223635 Ry
     estimated scf accuracy    <       0.02003154 Ry

     iteration # 10     ecut=    50.00 Ry     beta= 0.70
     Davidson diagonalization with overlap
     ethr =  1.14E-05,  avg # of iterations =  7.0

     negative rho (up, down):  1.770E-01 0.000E+00

     total cpu time spent up to now is      239.3 secs

     total energy              =    -725.68676855 Ry
     estimated scf accuracy    <       0.01425014 Ry

     iteration # 11     ecut=    50.00 Ry     beta= 0.70
     Davidson diagonalization with overlap
     ethr =  8.10E-06,  avg # of iterations =  6.0

     negative rho (up, down):  1.047E-01 0.000E+00

     total cpu time spent up to now is      253.1 secs

     total energy              =    -725.68325616 Ry
     estimated scf accuracy    <       0.01097009 Ry

     iteration # 12     ecut=    50.00 Ry     beta= 0.70
     Davidson diagonalization with overlap
     ethr =  6.23E-06,  avg # of iterations =  5.0

     negative rho (up, down):  9.197E-02 0.000E+00

     total cpu time spent up to now is      272.1 secs

     total energy              =    -725.68502494 Ry
     estimated scf accuracy    <       0.00209176 Ry

     iteration # 13     ecut=    50.00 Ry     beta= 0.70
     Davidson diagonalization with overlap
     ethr =  1.19E-06,  avg # of iterations = 10.0

     negative rho (up, down):  5.951E-02 0.000E+00

     total cpu time spent up to now is      286.9 secs

     total energy              =    -725.68551760 Ry
     estimated scf accuracy    <       0.00146135 Ry

     iteration # 14     ecut=    50.00 Ry     beta= 0.70
     Davidson diagonalization with overlap
     ethr =  8.30E-07,  avg # of iterations =  2.0

     negative rho (up, down):  3.987E-02 0.000E+00

     total cpu time spent up to now is      298.3 secs

     total energy              =    -725.68532035 Ry
     estimated scf accuracy    <       0.00087152 Ry

     iteration # 15     ecut=    50.00 Ry     beta= 0.70
     Davidson diagonalization with overlap
     ethr =  4.95E-07,  avg # of iterations =  7.0

     negative rho (up, down):  2.634E-02 0.000E+00

     total cpu time spent up to now is      313.0 secs

     total energy              =    -725.68536845 Ry
     estimated scf accuracy    <       0.00027493 Ry

     iteration # 16     ecut=    50.00 Ry     beta= 0.70
     Davidson diagonalization with overlap
     ethr =  1.56E-07,  avg # of iterations =  8.0

     negative rho (up, down):  1.859E-02 0.000E+00

     total cpu time spent up to now is      329.2 secs

     total energy              =    -725.68546425 Ry
     estimated scf accuracy    <       0.00007666 Ry

     iteration # 17     ecut=    50.00 Ry     beta= 0.70
     Davidson diagonalization with overlap
     ethr =  4.36E-08,  avg # of iterations =  6.0

     negative rho (up, down):  1.533E-02 0.000E+00

     total cpu time spent up to now is      344.8 secs

     total energy              =    -725.68547101 Ry
     estimated scf accuracy    <       0.00004399 Ry

     iteration # 18     ecut=    50.00 Ry     beta= 0.70
     Davidson diagonalization with overlap
     ethr =  2.50E-08,  avg # of iterations =  7.0

     negative rho (up, down):  1.328E-02 0.000E+00

     total cpu time spent up to now is      361.8 secs

     total energy              =    -725.68548207 Ry
     estimated scf accuracy    <       0.00002026 Ry

     iteration # 19     ecut=    50.00 Ry     beta= 0.70
     Davidson diagonalization with overlap
     ethr =  1.15E-08,  avg # of iterations =  5.0

     negative rho (up, down):  1.335E-02 0.000E+00

     total cpu time spent up to now is      378.1 secs

     total energy              =    -725.68548656 Ry
     estimated scf accuracy    <       0.00000590 Ry

     iteration # 20     ecut=    50.00 Ry     beta= 0.70
     Davidson diagonalization with overlap
     ethr =  3.35E-09,  avg # of iterations =  7.0

     negative rho (up, down):  1.374E-02 0.000E+00

     total cpu time spent up to now is      399.9 secs

     total energy              =    -725.68548713 Ry
     estimated scf accuracy    <       0.00000348 Ry

     iteration # 21     ecut=    50.00 Ry     beta= 0.70
     Davidson diagonalization with overlap
     ethr =  1.98E-09,  avg # of iterations =  5.0

     negative rho (up, down):  1.411E-02 0.000E+00

     total cpu time spent up to now is      417.3 secs

     total energy              =    -725.68548676 Ry
     estimated scf accuracy    <       0.00000153 Ry

     iteration # 22     ecut=    50.00 Ry     beta= 0.70
     Davidson diagonalization with overlap
     ethr =  8.71E-10,  avg # of iterations =  7.0

     negative rho (up, down):  1.411E-02 0.000E+00

     total cpu time spent up to now is      420.7 secs

     End of self-consistent calculation

          k = 0.0000 0.0000 0.0000 (261031 PWs)   bands (ev):

   -33.8809 -33.8265 -31.3400 -31.2832 -31.1648 -31.1191 -28.1415 -28.0673
   -26.0498 -24.0098 -22.2324 -22.2157 -21.6258 -20.4367 -20.0103 -19.3799
   -19.3064 -19.2713 -18.9405 -18.9001 -17.9633 -17.6763 -16.8339 -16.4835
   -16.1702 -15.9842 -15.9695 -15.4667 -15.3729 -15.2229 -15.1567 -15.1435
   -15.1183 -14.8196 -14.5710 -14.3226 -13.6802 -13.3008 -13.0504 -12.8167
   -12.3298 -12.1177 -11.9921 -11.9156 -11.7797 -11.5943 -11.5183 -11.4837
   -11.4368 -11.4309 -11.2846 -11.1816 -11.0813 -11.0353 -10.9793 -10.9672
   -10.9390 -10.6704 -10.6455 -10.5182 -10.4504 -10.3334 -10.2338 -10.1090
    -9.9328  -9.8999  -9.8767  -9.8342  -9.7836  -9.6449  -9.4925  -9.3781
    -9.2569  -9.1311  -8.9489  -8.7281  -8.4588  -8.2200  -8.1258  -7.8498
    -7.2825  -7.1079  -7.0514  -6.7722  -6.5705  -6.2162  -5.9786  -5.7674

     highest occupied level (ev):    -5.7674

!    total energy              =    -725.68548714 Ry
     estimated scf accuracy    <       0.00000061 Ry

     The total energy is the sum of the following terms:
     one-electron contribution =   -7229.17272013 Ry
     hartree contribution      =    3637.43172289 Ry
     xc contribution           =    -207.15560597 Ry
     ewald contribution        =    3073.33534999 Ry
     DFT-D3 Dispersion         =      -0.12423392 Ry

     convergence has been achieved in  22 iterations

     negative rho (up, down):  1.411E-02 0.000E+00

     Forces acting on atoms (cartesian axes, Ry/au):

     atom    1 type  1   force =    -0.00312014   -0.05908692   -0.02327560
     atom    2 type  1   force =     0.01444314    0.00098559   -0.02320217
     atom    3 type  1   force =    -0.01294086   -0.01392002    0.02096157
     atom    4 type  2   force =    -0.01665689   -0.03902892   -0.01210160
     atom    5 type  3   force =     0.00430710    0.00513131    0.00274233
     atom    6 type  4   force =     0.00685935    0.00365052    0.00602492
     atom    7 type  3   force =     0.00184955    0.00564967    0.00330144
     atom    8 type  4   force =    -0.00013911    0.00929364    0.00213789
     atom    9 type  3   force =     0.00410635    0.00178918    0.00062185
     atom   10 type  3   force =     0.00300167   -0.00640006   -0.00316347
     atom   11 type  4   force =    -0.00740568   -0.00382346   -0.00582137
     atom   12 type  3   force =    -0.00634068   -0.00518476   -0.00375283
     atom   13 type  4   force =    -0.00017812   -0.00930414   -0.00169434
     atom   14 type  3   force =     0.02079674   -0.01416332    0.00987468
     atom   15 type  3   force =    -0.02653868    0.00880664   -0.01745847
     atom   16 type  4   force =    -0.00148675   -0.00995800   -0.00357126
     atom   17 type  3   force =     0.02074428   -0.00059663    0.01535601
     atom   18 type  4   force =     0.00123029    0.01011910    0.00380410
     atom   19 type  3   force =     0.00224153    0.05042468    0.02008707
     atom   20 type  3   force =    -0.01131611   -0.00178957   -0.00947944
     atom   21 type  3   force =     0.00406641   -0.00397481   -0.00110178
     atom   22 type  4   force =     0.00030451   -0.00766475   -0.00626046
     atom   23 type  3   force =     0.00185432   -0.00725290   -0.00325612
     atom   24 type  4   force =     0.00784384   -0.00566157   -0.00007688
     atom   25 type  3   force =     0.01584229    0.00163128    0.01207928
     atom   26 type  3   force =    -0.00620839    0.00630495    0.00201024
     atom   27 type  4   force =    -0.00013280    0.00740825    0.00653952
     atom   28 type  3   force =    -0.00054518    0.00631811    0.00333306
     atom   29 type  4   force =    -0.00834824    0.00556864   -0.00013591
     atom   30 type  3   force =     0.02288970    0.03214608    0.01729310
     atom   31 type  4   force =    -0.00398431    0.00977933   -0.00499011
     atom   32 type  3   force =    -0.01960468   -0.00553066   -0.01193934
     atom   33 type  3   force =     0.00253773   -0.00565586    0.00135862
     atom   34 type  4   force =    -0.00268215   -0.00907298   -0.00196372
     atom   35 type  3   force =    -0.00275670   -0.00735393    0.00146526
     atom   36 type  4   force =     0.00275872   -0.00751011    0.00336479
     atom   37 type  3   force =     0.00998266    0.00084374    0.00125130
     atom   38 type  3   force =    -0.00157687    0.00685799   -0.00195573
     atom   39 type  4   force =    -0.00143030    0.00923057    0.00167026
     atom   40 type  3   force =    -0.00320547    0.00806606    0.00007280
     atom   41 type  4   force =    -0.00576045    0.00660436   -0.00389675
     atom   42 type  3   force =    -0.01655815   -0.00174429    0.00114825
     atom   43 type  5   force =    -0.00061843    0.04181240   -0.01170379
     atom   44 type  5   force =     0.01525475   -0.00172320    0.02685307
     atom   45 type  5   force =     0.03009303   -0.02113060   -0.03663723
     atom   46 type  3   force =     0.00086246   -0.00273137   -0.00218286
     atom   47 type  5   force =    -0.01405635   -0.03525745    0.01233133
     atom   48 type  5   force =    -0.01389044    0.02452429   -0.02472459
     atom   49 type  5   force =    -0.00638846    0.02257388    0.03866308
     The Martyna-Tuckerman correction term to forces
     atom    1 type  1   force =     0.00038852   -0.00214507    0.00020831
     atom    2 type  1   force =    -0.00344428   -0.00092303   -0.00186426
     atom    3 type  1   force =     0.00683392   -0.00057550    0.00015339
     atom    4 type  2   force =    -0.00008473   -0.00148719   -0.00000235
     atom    5 type  3   force =    -0.00349713   -0.00101242   -0.00012589
     atom    6 type  4   force =    -0.00003593   -0.00029149   -0.00004419
     atom    7 type  3   force =    -0.01192010   -0.00092882    0.00079031
     atom    8 type  4   force =    -0.00296518   -0.00029030    0.00018474
     atom    9 type  3   force =     0.00900999   -0.00053158    0.00110002
     atom   10 type  3   force =     0.00840996   -0.00028681    0.00088971
     atom   11 type  4   force =    -0.00088898   -0.00008145   -0.00144217
     atom   12 type  3   force =    -0.01128705   -0.00050679    0.00083772
     atom   13 type  4   force =    -0.00273332   -0.00010400    0.00020115
     atom   14 type  3   force =    -0.00263961   -0.00093837   -0.00005505
     atom   15 type  3   force =     0.00021088   -0.00108509   -0.00002484
     atom   16 type  4   force =     0.00007364   -0.00027430    0.00001405
     atom   17 type  3   force =     0.00019953   -0.00120322   -0.00002368
     atom   18 type  4   force =     0.00003622   -0.00030666   -0.00001530
     atom   19 type  3   force =     0.00020426   -0.00133262    0.00004770
     atom   20 type  3   force =     0.00012398   -0.00137370    0.00003080
     atom   21 type  3   force =     0.00002249   -0.00146963    0.00007708
     atom   22 type  4   force =    -0.00000027   -0.00039515    0.00004043
     atom   23 type  3   force =    -0.00006845   -0.00142805    0.00004519
     atom   24 type  4   force =    -0.00005008   -0.00037140    0.00001791
     atom   25 type  3   force =    -0.00000651   -0.00129637    0.00000935
     atom   26 type  3   force =     0.00009330   -0.00127680    0.00001376
     atom   27 type  4   force =     0.00003169   -0.00030591    0.00000995
     atom   28 type  3   force =     0.00012962   -0.00131432    0.00000466
     atom   29 type  4   force =     0.00003791   -0.00032254   -0.00000041
     atom   30 type  3   force =     0.00000313   -0.00104753    0.00003729
     atom   31 type  4   force =     0.00002422   -0.00026537    0.00001890
     atom   32 type  3   force =     0.00045549   -0.00088204    0.00003032
     atom   33 type  3   force =     0.01129153   -0.00080832   -0.00024507
     atom   34 type  4   force =     0.00084607   -0.00025044   -0.00003294
     atom   35 type  3   force =    -0.00091488   -0.00036985   -0.00121202
     atom   36 type  4   force =    -0.00323701   -0.00005418   -0.00029557
     atom   37 type  3   force =     0.00660922   -0.00034127   -0.00130198
     atom   38 type  3   force =     0.00978937   -0.00057013   -0.00131256
     atom   39 type  4   force =    -0.00200197   -0.00014458   -0.00029593
     atom   40 type  3   force =     0.00207116   -0.00073782    0.00006697
     atom   41 type  4   force =     0.00009282   -0.00019402    0.00003974
     atom   42 type  3   force =    -0.00430526   -0.00048602   -0.00126498
     atom   43 type  5   force =     0.01279825   -0.00104397   -0.00226378
     atom   44 type  5   force =    -0.01618502   -0.00074799    0.00900368
     atom   45 type  5   force =     0.02248409   -0.00076190   -0.00248683
     atom   46 type  3   force =    -0.01373786   -0.00071073    0.00105095
     atom   47 type  5   force =     0.01246779   -0.00070621    0.00232381
     atom   48 type  5   force =     0.01084848   -0.00105469   -0.00480682
     atom   49 type  5   force =    -0.03243646   -0.00154884    0.00144489
     The non-local contrib.  to forces
     atom    1 type  1   force =     0.13674719    2.35421375    0.94348425
     atom    2 type  1   force =    -0.56531431   -0.70153513    2.16793742
     atom    3 type  1   force =     0.28346344    0.69650403   -2.22227381
     atom    4 type  2   force =    -0.68301712    1.27884824   -0.57447784
     atom    5 type  3   force =    -0.00677572    0.00760446   -0.00147507
     atom    6 type  4   force =    -0.05298157   -0.03254367   -0.04942044
     atom    7 type  3   force =    -0.03225320   -0.02961202   -0.02289207
     atom    8 type  4   force =     0.00269302   -0.07885424   -0.01514546
     atom    9 type  3   force =    -0.38396049    0.35983753   -0.27262788
     atom   10 type  3   force =     0.01092766    0.03958308    0.01506448
     atom   11 type  4   force =     0.05440719    0.02972195    0.05106653
     atom   12 type  3   force =    -0.02739017    0.01956337   -0.01382256
     atom   13 type  4   force =    -0.00139398    0.07782506    0.01684329
     atom   14 type  3   force =     0.04445004   -0.03375634    0.02486335
     atom   15 type  3   force =    -0.10310536    0.07151521   -0.05151593
     atom   16 type  4   force =     0.00248594    0.07718363    0.02105056
     atom   17 type  3   force =     0.05588795    0.01252980    0.04892480
     atom   18 type  4   force =    -0.01198608   -0.07367018   -0.02477170
     atom   19 type  3   force =    -0.00716519   -0.08224161   -0.03536532
     atom   20 type  3   force =    -0.02703410    0.01228611   -0.00322206
     atom   21 type  3   force =    -0.00202245    0.05221047    0.01505309
     atom   22 type  4   force =     0.00014510    0.06433040    0.04911998
     atom   23 type  3   force =     0.00231963    0.04975502   -0.01061078
     atom   24 type  4   force =    -0.06487036    0.04645899   -0.00209260
     atom   25 type  3   force =     0.19567680    0.02666448    0.20201356
     atom   26 type  3   force =     0.01727864   -0.00818184    0.01404992
     atom   27 type  4   force =     0.00595173   -0.05968709   -0.05131420
     atom   28 type  3   force =    -0.01157226    0.00641873    0.01087954
     atom   29 type  4   force =     0.06451457   -0.04575916   -0.00361232
     atom   30 type  3   force =     0.03342098   -0.09448415    0.03508067
     atom   31 type  4   force =     0.03352645   -0.06009335    0.03269541
     atom   32 type  3   force =    -0.05313080    0.00869545   -0.03650933
     atom   33 type  3   force =     0.01673981    0.05897556    0.01037706
     atom   34 type  4   force =     0.02139112    0.07609808    0.01844640
     atom   35 type  3   force =    -0.00302346    0.05376650    0.01502742
     atom   36 type  4   force =    -0.04523044    0.05819120   -0.03152724
     atom   37 type  3   force =     0.45068760    0.11838261    0.37214619
     atom   38 type  3   force =     0.02415714   -0.05185664   -0.00440748
     atom   39 type  4   force =    -0.01933172   -0.07615088   -0.01837341
     atom   40 type  3   force =     0.00840259    0.01419225    0.01701090
     atom   41 type  4   force =     0.04279563   -0.05933554    0.03014772
     atom   42 type  3   force =     0.15934180    0.07424444   -0.03191314
     atom   43 type  5   force =     0.37150487   -2.87111767    0.74979826
     atom   44 type  5   force =    -2.25738184    0.10982551   -2.25301857
     atom   45 type  5   force =    -1.05532064    1.44106393    2.49673417
     atom   46 type  3   force =    -0.16214425    0.06361438    0.05965677
     atom   47 type  5   force =     1.63640057    2.44708248   -0.78289893
     atom   48 type  5   force =     1.78854231   -1.80750903    1.91458122
     atom   49 type  5   force =    -0.49557784   -1.56241455   -2.53111834
     The ionic contribution  to forces
     atom    1 type  1   force =    -1.23502446  -18.37388983   -7.11417249
     atom    2 type  1   force =     4.85631600    4.53836255  -16.99954577
     atom    3 type  1   force =    -3.15337588   -4.97681481   17.15796846
     atom    4 type  2   force =     3.25804165   -8.05758081    3.23523490
     atom    5 type  3   force =     3.91385060    4.41141525    3.55231535
     atom    6 type  4   force =     1.87789782    2.20096565    1.93558656
     atom    7 type  3   force =     3.19434213    7.12606392    1.98034036
     atom    8 type  4   force =     0.88886848    3.78364104    0.89329018
     atom    9 type  3   force =     2.21802675   -0.80025303   -2.44281125
     atom   10 type  3   force =    -3.36407719   -6.65865437   -6.22603467
     atom   11 type  4   force =    -2.13962332   -2.38102112   -2.82289192
     atom   12 type  3   force =    -1.38574201   -8.27142660   -3.63072116
     atom   13 type  4   force =    -0.48584795   -3.75964774   -1.34694954
     atom   14 type  3   force =     0.97533554   -2.37831531    0.06080599
     atom   15 type  3   force =    -1.64529316   -4.18622687   -1.97707858
     atom   16 type  4   force =    -0.70885521   -3.40869856   -1.30137459
     atom   17 type  3   force =     0.09552634    3.00107611    1.07636821
     atom   18 type  4   force =     0.34300498    3.00769124    0.85334432
     atom   19 type  3   force =    -0.49413533    1.15135592    0.47661827
     atom   20 type  3   force =    -0.76330849   -1.01044787   -0.72518380
     atom   21 type  3   force =     3.07046471   -7.17966011   -3.61036054
     atom   22 type  4   force =     1.03962625   -3.29888225   -1.98704105
     atom   23 type  3   force =     5.64918394   -6.76058483   -1.37804558
     atom   24 type  4   force =     2.83424476   -2.77446172   -0.40777677
     atom   25 type  3   force =     0.74473651   -1.30596355    0.83322638
     atom   26 type  3   force =    -2.68560900    5.39027409    4.38200809
     atom   27 type  4   force =    -1.10493491    2.76728093    2.31607933
     atom   28 type  3   force =    -4.63153138    4.73432773    2.32767142
     atom   29 type  4   force =    -2.50052238    2.33029288    1.02709941
     atom   30 type  3   force =    -0.39592074    5.45204098   -0.79215999
     atom   31 type  4   force =    -1.09579105    3.10339822   -1.31066160
     atom   32 type  3   force =    -1.63858760    0.41375191   -0.79033181
     atom   33 type  3   force =     0.11972259   -7.94665907    0.61390526
     atom   34 type  4   force =    -0.04932317   -3.75845189   -0.05577219
     atom   35 type  3   force =     2.19835865   -8.49174846    3.15229784
     atom   36 type  4   force =     1.68352557   -3.54163336    1.54658704
     atom   37 type  3   force =    -2.35636752   -1.13240933    2.06748688
     atom   38 type  3   force =    -2.22907975    8.22226761    1.06767531
     atom   39 type  4   force =    -0.32925398    3.96405734    0.69030044
     atom   40 type  3   force =    -3.66186098    7.36713738   -1.73981294
     atom   41 type  4   force =    -1.72161014    3.29325805   -1.07247363
     atom   42 type  3   force =     3.66348454    0.91316730    2.20583218
     atom   43 type  5   force =     3.61286478   25.42458598   -3.23650124
     atom   44 type  5   force =    21.01715855    0.14560453   19.10499422
     atom   45 type  5   force =    15.90604225   -9.84151601  -17.64965358
     atom   46 type  3   force =    -3.44662236    2.07125462   -1.61288404
     atom   47 type  5   force =   -19.96031874  -16.50855550    4.69274872
     atom   48 type  5   force =   -17.26805986   15.61539101  -16.08678586
     atom   49 type  5   force =    -2.70994685   16.37484074   19.06723948
     The local contribution  to forces
     atom    1 type  1   force =     1.09531404   15.97773917    6.15296044
     atom    2 type  1   force =    -4.27688956   -3.84110425   14.82790488
     atom    3 type  1   force =     2.85137626    4.27236410  -14.93290322
     atom    4 type  2   force =    -2.60305743    6.75680507   -2.68202442
     atom    5 type  3   force =    -3.89824093   -4.41203654   -3.54687464
     atom    6 type  4   force =    -1.81799674   -2.16410370   -1.87999795
     atom    7 type  3   force =    -3.14861675   -7.08785090   -1.95462878
     atom    8 type  4   force =    -0.88857689   -3.69489284   -0.87609988
     atom    9 type  3   force =    -1.84877949    0.45200785    2.70804653
     atom   10 type  3   force =     3.34633785    6.61192596    6.20539492
     atom   11 type  4   force =     2.07857050    2.34727974    2.76718176
     atom   12 type  3   force =     1.41732681    8.24558550    3.63915665
     atom   13 type  4   force =     0.48964456    3.67232177    1.32802181
     atom   14 type  3   force =    -0.99448636    2.39742725   -0.07443979
     atom   15 type  3   force =     1.71657322    4.12514502    2.00772847
     atom   16 type  4   force =     0.70474016    3.32155814    1.27663810
     atom   17 type  3   force =    -0.12733118   -3.01171527   -1.10666448
     atom   18 type  4   force =    -0.32985517   -2.92335696   -0.82474303
     atom   19 type  3   force =     0.50334215   -1.01116908   -0.41874928
     atom   20 type  3   force =     0.77693439    0.99761822    0.71759983
     atom   21 type  3   force =    -3.06446040    7.12398328    3.59284997
     atom   22 type  4   force =    -1.03931152    3.22692519    1.93142721
     atom   23 type  3   force =    -5.64753212    6.70428653    1.38524449
     atom   24 type  4   force =    -2.76122833    2.72234033    0.40966187
     atom   25 type  3   force =    -0.91968737    1.28307027   -1.01816537
     atom   26 type  3   force =     2.66200282   -5.37274327   -4.39231942
     atom   27 type  4   force =     1.09851841   -2.69958416   -2.25804563
     atom   28 type  3   force =     4.64043174   -4.73166011   -2.33488948
     atom   29 type  4   force =     2.42743915   -2.27831802   -1.02337126
     atom   30 type  3   force =     0.38790453   -5.32042681    0.77613572
     atom   31 type  4   force =     1.05826105   -3.03295188    1.27288663
     atom   32 type  3   force =     1.66953454   -0.42731686    0.81332730
     atom   33 type  3   force =    -0.14536601    7.88174448   -0.62266486
     atom   34 type  4   force =     0.02456682    3.67316403    0.03552553
     atom   35 type  3   force =    -2.19616222    8.42950580   -3.16334760
     atom   36 type  4   force =    -1.63225251    3.47558748   -1.51128737
     atom   37 type  3   force =     1.92020052    1.01808445   -2.42776434
     atom   38 type  3   force =     2.19384711   -8.16111067   -1.06369731
     atom   39 type  4   force =     0.34900935   -3.87814281   -0.66993902
     atom   40 type  3   force =     3.64718953   -7.37028349    1.72232102
     atom   41 type  4   force =     1.67286299   -3.22672351    1.03832949
     atom   42 type  3   force =    -3.83062210   -0.98626777   -2.17279574
     atom   43 type  5   force =    -3.99626504  -22.51926380    2.47960838
     atom   44 type  5   force =   -18.73499494   -0.25598324  -16.84101412
     atom   45 type  5   force =   -14.84579308    8.38465908   15.12642425
     atom   46 type  3   force =     3.61879266   -2.13536078    1.55200567
     atom   47 type  5   force =    18.30220642   14.03483147   -3.90231058
     atom   48 type  5   force =    15.46028161  -13.78807066   14.15839268
     atom   49 type  5   force =     3.22959638  -14.79321274  -16.50696128
     The core correction contribution to forces
     atom    1 type  1   force =    -0.00085284   -0.01570332   -0.00623433
     atom    2 type  1   force =     0.00353335    0.00627583   -0.01769269
     atom    3 type  1   force =    -0.00115120   -0.00542173    0.01827459
     atom    4 type  2   force =     0.01171621   -0.01580373    0.00948473
     atom    5 type  3   force =    -0.00137098   -0.00053802   -0.00137935
     atom    6 type  4   force =     0.00000000    0.00000000    0.00000000
     atom    7 type  3   force =     0.00045544   -0.00177280   -0.00034851
     atom    8 type  4   force =     0.00000000    0.00000000    0.00000000
     atom    9 type  3   force =     0.00986779   -0.00934765    0.00692940
     atom   10 type  3   force =     0.00135872    0.00077263    0.00122293
     atom   11 type  4   force =     0.00000000    0.00000000    0.00000000
     atom   12 type  3   force =     0.00048732    0.00159845    0.00052857
     atom   13 type  4   force =     0.00000000    0.00000000    0.00000000
     atom   14 type  3   force =    -0.00222987    0.00157326   -0.00157051
     atom   15 type  3   force =     0.00482413   -0.00083141    0.00317547
     atom   16 type  4   force =     0.00000000    0.00000000    0.00000000
     atom   17 type  3   force =    -0.00372950   -0.00124757   -0.00338456
     atom   18 type  4   force =     0.00000000    0.00000000    0.00000000
     atom   19 type  3   force =    -0.00030097   -0.00639181   -0.00273084
     atom   20 type  3   force =     0.00206207    0.00007638    0.00141453
     atom   21 type  3   force =     0.00018072    0.00069169    0.00121114
     atom   22 type  4   force =     0.00000000    0.00000000    0.00000000
     atom   23 type  3   force =    -0.00195755    0.00036298    0.00003100
     atom   24 type  4   force =     0.00000000    0.00000000    0.00000000
     atom   25 type  3   force =    -0.00489399   -0.00070172   -0.00490634
     atom   26 type  3   force =    -0.00033351   -0.00156579   -0.00154808
     atom   27 type  4   force =     0.00000000    0.00000000    0.00000000
     atom   28 type  3   force =     0.00185010   -0.00120731   -0.00004622
     atom   29 type  4   force =     0.00000000    0.00000000    0.00000000
     atom   30 type  3   force =    -0.00269057   -0.00383948   -0.00191150
     atom   31 type  4   force =     0.00000000    0.00000000    0.00000000
     atom   32 type  3   force =     0.00242322    0.00035509    0.00179494
     atom   33 type  3   force =     0.00046903    0.00090644    0.00032133
     atom   34 type  4   force =     0.00000000    0.00000000    0.00000000
     atom   35 type  3   force =    -0.00113685    0.00102482   -0.00116345
     atom   36 type  4   force =     0.00000000    0.00000000    0.00000000
     atom   37 type  3   force =    -0.01147302   -0.00299579   -0.00947104
     atom   38 type  3   force =    -0.00064318   -0.00156012   -0.00018848
     atom   39 type  4   force =     0.00000000    0.00000000    0.00000000
     atom   40 type  3   force =     0.00099019   -0.00184535    0.00059266
     atom   41 type  4   force =     0.00000000    0.00000000    0.00000000
     atom   42 type  3   force =    -0.00398558   -0.00224160    0.00138211
     atom   43 type  5   force =    -0.00119019    0.00909310   -0.00236601
     atom   44 type  5   force =     0.00715598   -0.00034250    0.00711964
     atom   45 type  5   force =     0.00333677   -0.00456007   -0.00790331
     atom   46 type  3   force =     0.00423193   -0.00139500   -0.00207365
     atom   47 type  5   force =    -0.00520523   -0.00774694    0.00247472
     atom   48 type  5   force =    -0.00568089    0.00571761   -0.00604558
     atom   49 type  5   force =     0.00158884    0.00495434    0.00800728
     The Hubbard contrib.    to forces
     atom    1 type  1   force =     0.00000000    0.00000000    0.00000000
     atom    2 type  1   force =     0.00000000    0.00000000    0.00000000
     atom    3 type  1   force =     0.00000000    0.00000000    0.00000000
     atom    4 type  2   force =     0.00000000    0.00000000    0.00000000
     atom    5 type  3   force =     0.00000000    0.00000000    0.00000000
     atom    6 type  4   force =     0.00000000    0.00000000    0.00000000
     atom    7 type  3   force =     0.00000000    0.00000000    0.00000000
     atom    8 type  4   force =     0.00000000    0.00000000    0.00000000
     atom    9 type  3   force =     0.00000000    0.00000000    0.00000000
     atom   10 type  3   force =     0.00000000    0.00000000    0.00000000
     atom   11 type  4   force =     0.00000000    0.00000000    0.00000000
     atom   12 type  3   force =     0.00000000    0.00000000    0.00000000
     atom   13 type  4   force =     0.00000000    0.00000000    0.00000000
     atom   14 type  3   force =     0.00000000    0.00000000    0.00000000
     atom   15 type  3   force =     0.00000000    0.00000000    0.00000000
     atom   16 type  4   force =     0.00000000    0.00000000    0.00000000
     atom   17 type  3   force =     0.00000000    0.00000000    0.00000000
     atom   18 type  4   force =     0.00000000    0.00000000    0.00000000
     atom   19 type  3   force =     0.00000000    0.00000000    0.00000000
     atom   20 type  3   force =     0.00000000    0.00000000    0.00000000
     atom   21 type  3   force =     0.00000000    0.00000000    0.00000000
     atom   22 type  4   force =     0.00000000    0.00000000    0.00000000
     atom   23 type  3   force =     0.00000000    0.00000000    0.00000000
     atom   24 type  4   force =     0.00000000    0.00000000    0.00000000
     atom   25 type  3   force =     0.00000000    0.00000000    0.00000000
     atom   26 type  3   force =     0.00000000    0.00000000    0.00000000
     atom   27 type  4   force =     0.00000000    0.00000000    0.00000000
     atom   28 type  3   force =     0.00000000    0.00000000    0.00000000
     atom   29 type  4   force =     0.00000000    0.00000000    0.00000000
     atom   30 type  3   force =     0.00000000    0.00000000    0.00000000
     atom   31 type  4   force =     0.00000000    0.00000000    0.00000000
     atom   32 type  3   force =     0.00000000    0.00000000    0.00000000
     atom   33 type  3   force =     0.00000000    0.00000000    0.00000000
     atom   34 type  4   force =     0.00000000    0.00000000    0.00000000
     atom   35 type  3   force =     0.00000000    0.00000000    0.00000000
     atom   36 type  4   force =     0.00000000    0.00000000    0.00000000
     atom   37 type  3   force =     0.00000000    0.00000000    0.00000000
     atom   38 type  3   force =     0.00000000    0.00000000    0.00000000
     atom   39 type  4   force =     0.00000000    0.00000000    0.00000000
     atom   40 type  3   force =     0.00000000    0.00000000    0.00000000
     atom   41 type  4   force =     0.00000000    0.00000000    0.00000000
     atom   42 type  3   force =     0.00000000    0.00000000    0.00000000
     atom   43 type  5   force =     0.00000000    0.00000000    0.00000000
     atom   44 type  5   force =     0.00000000    0.00000000    0.00000000
     atom   45 type  5   force =     0.00000000    0.00000000    0.00000000
     atom   46 type  3   force =     0.00000000    0.00000000    0.00000000
     atom   47 type  5   force =     0.00000000    0.00000000    0.00000000
     atom   48 type  5   force =     0.00000000    0.00000000    0.00000000
     atom   49 type  5   force =     0.00000000    0.00000000    0.00000000
     The SCF correction term to forces
     atom    1 type  1   force =     0.00025289    0.00015452    0.00027044
     atom    2 type  1   force =    -0.00000186    0.00015676   -0.00020595
     atom    3 type  1   force =     0.00019651    0.00005995    0.00005770
     atom    4 type  2   force =    -0.00021199   -0.00000158   -0.00029129
     atom    5 type  3   force =     0.00015533   -0.00007261    0.00012256
     atom    6 type  4   force =     0.00003774   -0.00000949    0.00003141
     atom    7 type  3   force =     0.00006037    0.00002104    0.00003732
     atom    8 type  4   force =     0.00000699    0.00004030    0.00001157
     atom    9 type  3   force =    -0.00000773    0.00002410   -0.00005098
     atom   10 type  3   force =     0.00004211   -0.00002081    0.00000020
     atom   11 type  4   force =    -0.00001559   -0.00001008   -0.00002150
     atom   12 type  3   force =     0.00011299   -0.00006104    0.00007813
     atom   13 type  4   force =     0.00002201   -0.00003327    0.00001206
     atom   14 type  3   force =     0.00015912   -0.00010900    0.00010781
     atom   15 type  3   force =     0.00019431   -0.00006781    0.00013245
     atom   16 type  4   force =     0.00004927   -0.00001877    0.00003208
     atom   17 type  3   force =     0.00019414   -0.00020937    0.00007626
     atom   18 type  4   force =     0.00003470   -0.00003918    0.00001286
     atom   19 type  3   force =     0.00019442   -0.00013949    0.00008089
     atom   20 type  3   force =     0.00012448   -0.00012130    0.00000356
     atom   21 type  3   force =     0.00007280    0.00005536    0.00007067
     atom   22 type  4   force =     0.00000444    0.00002766    0.00002571
     atom   23 type  3   force =     0.00001456    0.00006371    0.00001432
     atom   24 type  4   force =    -0.00003365    0.00003133   -0.00000417
     atom   25 type  3   force =    -0.00003168   -0.00009313   -0.00014861
     atom   26 type  3   force =     0.00019652   -0.00019723   -0.00007753
     atom   27 type  4   force =     0.00002858   -0.00004608   -0.00002206
     atom   28 type  3   force =     0.00023713   -0.00020013   -0.00001442
     atom   29 type  4   force =     0.00003950   -0.00003432    0.00000602
     atom   30 type  3   force =    -0.00003916   -0.00008445   -0.00008689
     atom   31 type  4   force =    -0.00000653   -0.00006663   -0.00001544
     atom   32 type  3   force =    -0.00008263   -0.00005302   -0.00009315
     atom   33 type  3   force =    -0.00012603    0.00013230   -0.00013942
     atom   34 type  4   force =    -0.00002740   -0.00000014   -0.00003345
     atom   35 type  3   force =     0.00007792    0.00011007    0.00002787
     atom   36 type  4   force =     0.00003892    0.00000954    0.00001940
     atom   37 type  3   force =     0.00023767    0.00008796    0.00015017
     atom   38 type  3   force =     0.00010942   -0.00005755    0.00003776
     atom   39 type  4   force =     0.00004252    0.00000049    0.00001843
     atom   40 type  3   force =     0.00001821   -0.00021778   -0.00003309
     atom   41 type  4   force =     0.00000228   -0.00002574   -0.00000830
     atom   42 type  3   force =    -0.00007952   -0.00004902    0.00004223
     atom   43 type  5   force =     0.00001764   -0.00015095    0.00005474
     atom   44 type  5   force =    -0.00018492   -0.00002601   -0.00006896
     atom   45 type  5   force =    -0.00011988    0.00001890    0.00012895
     atom   46 type  3   force =    -0.00002323    0.00008697   -0.00001600
     atom   47 type  5   force =    -0.00012879   -0.00011033    0.00004742
     atom   48 type  5   force =    -0.00010292    0.00024730   -0.00018556
     atom   49 type  5   force =     0.00002477    0.00025502    0.00019604

     DFT-D3 dispersion contribution to forces:
     atom    1 type  1   force =     0.00005056    0.00053792    0.00020141
     atom    2 type  1   force =     0.00023985   -0.00025308    0.00025783
     atom    3 type  1   force =    -0.00028785   -0.00004201   -0.00032190
     atom    4 type  2   force =    -0.00004744    0.00018514   -0.00003170
     atom    5 type  3   force =     0.00018197   -0.00023475    0.00015301
     atom    6 type  4   force =    -0.00006593   -0.00037271   -0.00013683
     atom    7 type  3   force =    -0.00022230   -0.00027669   -0.00000355
     atom    8 type  4   force =    -0.00016949   -0.00035627   -0.00010962
     atom    9 type  3   force =    -0.00005444    0.00004602    0.00002965
     atom   10 type  3   force =    -0.00000141    0.00027432    0.00029260
     atom   11 type  4   force =     0.00014055    0.00028156    0.00027957
     atom   12 type  3   force =     0.00014747    0.00005640    0.00018345
     atom   13 type  4   force =     0.00012660    0.00032810    0.00017054
     atom   14 type  3   force =     0.00020393   -0.00005074    0.00015652
     atom   15 type  3   force =     0.00005333    0.00035166    0.00011813
     atom   16 type  4   force =     0.00001550    0.00028592    0.00006217
     atom   17 type  3   force =    -0.00000695    0.00016695    0.00005308
     atom   18 type  4   force =    -0.00000832   -0.00020510   -0.00002941
     atom   19 type  3   force =     0.00009824    0.00033743    0.00017928
     atom   20 type  3   force =    -0.00022241    0.00016665   -0.00012865
     atom   21 type  3   force =    -0.00019542    0.00020820   -0.00000956
     atom   22 type  4   force =    -0.00016345    0.00032347    0.00016090
     atom   23 type  3   force =    -0.00010965    0.00028581    0.00005887
     atom   24 type  4   force =    -0.00022246    0.00033497    0.00011052
     atom   25 type  3   force =     0.00004457   -0.00005463    0.00004395
     atom   26 type  3   force =     0.00015887   -0.00001013   -0.00012286
     atom   27 type  4   force =     0.00026774   -0.00025539   -0.00017424
     atom   28 type  3   force =    -0.00009410   -0.00005242   -0.00027880
     atom   29 type  4   force =     0.00013905   -0.00029613   -0.00026371
     atom   30 type  3   force =     0.00020756   -0.00001841    0.00019143
     atom   31 type  4   force =    -0.00000242   -0.00024759    0.00007964
     atom   32 type  3   force =    -0.00022086   -0.00008712   -0.00016398
     atom   33 type  3   force =    -0.00019714    0.00004681   -0.00020205
     atom   34 type  4   force =    -0.00013955    0.00036144   -0.00010342
     atom   35 type  3   force =     0.00004019    0.00035125   -0.00017115
     atom   36 type  4   force =    -0.00008977    0.00038327   -0.00013784
     atom   37 type  3   force =     0.00008422    0.00002917   -0.00000093
     atom   38 type  3   force =     0.00023906   -0.00026044   -0.00006934
     atom   39 type  4   force =     0.00010153   -0.00039492   -0.00004661
     atom   40 type  3   force =    -0.00002015   -0.00018505   -0.00007907
     atom   41 type  4   force =     0.00009200   -0.00038083    0.00006186
     atom   42 type  3   force =    -0.00039598   -0.00011755   -0.00014077
     atom   43 type  5   force =    -0.00035271   -0.00029623   -0.00004051
     atom   44 type  5   force =    -0.00031701   -0.00005944   -0.00016919
     atom   45 type  5   force =    -0.00054045   -0.00004046    0.00011276
     atom   46 type  3   force =     0.00036160   -0.00022677    0.00007108
     atom   47 type  5   force =     0.00051767   -0.00005837   -0.00006019
     atom   48 type  5   force =     0.00027687   -0.00020318    0.00011898
     atom   49 type  5   force =     0.00035874   -0.00030603   -0.00015134

     Total force =     0.170876     Total SCF correction =     0.001285

     BFGS Geometry Optimization
     Energy error            =      0.0E+00 Ry
     Gradient error          =      5.9E-02 Ry/Bohr

     number of scf cycles    =   1
     number of bfgs steps    =   0

     energy             new  =    -725.6854871414 Ry

     new trust radius        =       0.0635826473 bohr
     new conv_thr            =       0.0000010000 Ry


ATOMIC_POSITIONS (angstrom)
O            13.3346248928        5.3025095490        9.5288150804
O             7.5821049793       10.5478505508        6.4052359388
O            22.5128649930        9.8654458413       17.0902503878
N            17.7561665525        7.5855377865       13.4641991090
C            10.3697092198        9.4666983698        8.5252641791
H            11.0951728108        9.9045167741        9.2010032489
C             9.4168367383       10.2822546747        7.9437020493
H             9.3831733866       11.3457469811        8.1464123210
C             8.4945679851        9.7219207939        7.0735050715
C             8.5010444167        8.3689042325        6.7776679616
H             7.7629100812        7.9689127099        6.0892394655
C             9.4572276551        7.5641463457        7.3652610883
H             9.4831077451        6.5032074607        7.1383613913
C            10.4212821622        8.0871950957        8.2490524571
C            11.4079403349        7.2014742744        8.7908073731
H            11.3571762451        6.1503254539        8.4944901728
C            12.4428804003        7.5063542786        9.6221420482
H            12.5958450417        8.5234697995        9.9626840442
C            13.4084991659        6.4825885935       10.0116876207
C            14.5095657702        6.8163020004       10.9280316990
C            15.6444478505        5.9915166206       10.9550369617
H            15.6594521405        5.1291049869       10.2964581062
C            16.6993042649        6.2642999290       11.7959589351
H            17.5817577820        5.6345020277       11.8203493144
C            16.6653463796        7.3808542356       12.6477820812
C            15.5112846631        8.1839294383       12.6571907737
H            15.4407867258        9.0056162746       13.3615305657
C            14.4604575008        7.9084684011       11.8023147782
H            13.5741213005        8.5338907972       11.8411450820
C            18.1714587064        8.8048499752       13.7103491120
H            17.6776815937        9.6649969964       13.2366653499
C            19.2892316520        9.0689853028       14.5735719720
C            20.0611279093        8.0318650457       15.1232379482
H            19.7865986666        7.0102347874       14.8842618461
C            21.1398182179        8.3122584692       15.9333113833
H            21.7544078537        7.5278268233       16.3595425714
C            21.4579435956        9.6380514871       16.2095701594
C            20.7054605568       10.6883780898       15.7002130704
H            20.9631101166       11.7097186099       15.9487178654
C            19.6313857361       10.3949303775       14.8744135247
H            19.0399666997       11.2030578749       14.4570199282
C            23.6218768030       10.4391859629       16.5763806278
F            23.4422157389       11.7473191696       16.2265106196
F            24.5770064671       10.3946381224       17.5216190312
F            24.0895315439        9.7958001703       15.4658054116
C             6.4442113917       10.8595706230        7.0746688817
F             5.7306146995        9.7581575605        7.4268224575
F             5.6931144947       11.6268556949        6.2675503129
F             6.6808013722       11.5591465804        8.2228436209



     Writing config-only to output data dir ./outdir/4amp34iso.save/
     NEW-OLD atomic charge density approx. for the potential

     negative rho (up, down):  1.411E-02 0.000E+00

     total cpu time spent up to now is      432.4 secs

     Self-consistent Calculation

     iteration #  1     ecut=    50.00 Ry     beta= 0.70
     Davidson diagonalization with overlap
     c_bands:  1 eigenvalues not converged
     ethr =  1.00E-06,  avg # of iterations = 20.0

     negative rho (up, down):  1.828E-02 0.000E+00

     total cpu time spent up to now is      460.4 secs

     total energy              =    -725.69032051 Ry
     estimated scf accuracy    <       0.01090347 Ry

     iteration #  2     ecut=    50.00 Ry     beta= 0.70
     Davidson diagonalization with overlap
     ethr =  6.20E-06,  avg # of iterations =  2.0

     negative rho (up, down):  2.711E-02 0.000E+00

     total cpu time spent up to now is      484.0 secs

     total energy              =    -725.68911684 Ry
     estimated scf accuracy    <       0.00329797 Ry

     iteration #  3     ecut=    50.00 Ry     beta= 0.70
     Davidson diagonalization with overlap
     ethr =  1.87E-06,  avg # of iterations =  5.0

     negative rho (up, down):  2.722E-02 0.000E+00

     total cpu time spent up to now is      512.5 secs

     total energy              =    -725.68994768 Ry
     estimated scf accuracy    <       0.00085948 Ry

     iteration #  4     ecut=    50.00 Ry     beta= 0.70
     Davidson diagonalization with overlap
     ethr =  4.88E-07,  avg # of iterations =  8.0

     negative rho (up, down):  2.747E-02 0.000E+00

     total cpu time spent up to now is      540.2 secs

     total energy              =    -725.68997723 Ry
     estimated scf accuracy    <       0.00035487 Ry

     iteration #  5     ecut=    50.00 Ry     beta= 0.70
     Davidson diagonalization with overlap
     ethr =  2.02E-07,  avg # of iterations =  8.0

     negative rho (up, down):  2.605E-02 0.000E+00

     total cpu time spent up to now is      562.6 secs

     total energy              =    -725.69001676 Ry
     estimated scf accuracy    <       0.00016295 Ry

     iteration #  6     ecut=    50.00 Ry     beta= 0.70
     Davidson diagonalization with overlap
     ethr =  9.26E-08,  avg # of iterations =  6.0

     negative rho (up, down):  2.356E-02 0.000E+00

     total cpu time spent up to now is      588.3 secs

     total energy              =    -725.69002106 Ry
     estimated scf accuracy    <       0.00009399 Ry

     iteration #  7     ecut=    50.00 Ry     beta= 0.70
     Davidson diagonalization with overlap
     ethr =  5.34E-08,  avg # of iterations =  6.0

     negative rho (up, down):  2.166E-02 0.000E+00

     total cpu time spent up to now is      609.3 secs

     total energy              =    -725.69001470 Ry
     estimated scf accuracy    <       0.00006051 Ry

     iteration #  8     ecut=    50.00 Ry     beta= 0.70
     Davidson diagonalization with overlap
     ethr =  3.44E-08,  avg # of iterations =  9.0

     negative rho (up, down):  1.846E-02 0.000E+00

     total cpu time spent up to now is      634.6 secs

     total energy              =    -725.69000748 Ry
     estimated scf accuracy    <       0.00002483 Ry

     iteration #  9     ecut=    50.00 Ry     beta= 0.70
     Davidson diagonalization with overlap
     ethr =  1.41E-08,  avg # of iterations = 10.0

     negative rho (up, down):  1.656E-02 0.000E+00

     total cpu time spent up to now is      652.4 secs

     total energy              =    -725.69001111 Ry
     estimated scf accuracy    <       0.00000732 Ry

     iteration # 10     ecut=    50.00 Ry     beta= 0.70
     Davidson diagonalization with overlap
     ethr =  4.16E-09,  avg # of iterations =  7.0

     negative rho (up, down):  1.598E-02 0.000E+00

     total cpu time spent up to now is      674.6 secs

     total energy              =    -725.69001285 Ry
     estimated scf accuracy    <       0.00000631 Ry

     iteration # 11     ecut=    50.00 Ry     beta= 0.70
     Davidson diagonalization with overlap
     ethr =  3.59E-09,  avg # of iterations =  2.0

     negative rho (up, down):  1.497E-02 0.000E+00

     total cpu time spent up to now is      696.3 secs

     total energy              =    -725.69001077 Ry
     estimated scf accuracy    <       0.00000364 Ry

     iteration # 12     ecut=    50.00 Ry     beta= 0.70
     Davidson diagonalization with overlap
     ethr =  2.07E-09,  avg # of iterations = 13.0

     negative rho (up, down):  1.468E-02 0.000E+00

     total cpu time spent up to now is      722.4 secs

     total energy              =    -725.69001150 Ry
     estimated scf accuracy    <       0.00000496 Ry

     iteration # 13     ecut=    50.00 Ry     beta= 0.70
     Davidson diagonalization with overlap
     ethr =  2.07E-09,  avg # of iterations = 10.0

     negative rho (up, down):  1.432E-02 0.000E+00

     total cpu time spent up to now is      739.5 secs

     total energy              =    -725.69001120 Ry
     estimated scf accuracy    <       0.00000175 Ry

     iteration # 14     ecut=    50.00 Ry     beta= 0.70
     Davidson diagonalization with overlap
     ethr =  9.97E-10,  avg # of iterations =  9.0

     negative rho (up, down):  1.425E-02 0.000E+00

     total cpu time spent up to now is      766.3 secs

     total energy              =    -725.69001145 Ry
     estimated scf accuracy    <       0.00000139 Ry

     iteration # 15     ecut=    50.00 Ry     beta= 0.70
     Davidson diagonalization with overlap
     ethr =  7.89E-10,  avg # of iterations =  6.0

     negative rho (up, down):  1.400E-02 0.000E+00

     total cpu time spent up to now is      769.0 secs

     End of self-consistent calculation

          k = 0.0000 0.0000 0.0000 (261031 PWs)   bands (ev):

   -33.5226 -33.5000 -31.1399 -31.1364 -30.9815 -30.9520 -28.3151 -28.0827
   -25.0824 -23.8733 -22.2684 -22.2316 -21.5340 -20.4598 -20.1183 -19.4297
   -19.3457 -19.2835 -18.9049 -18.8539 -18.0850 -17.7157 -16.8840 -16.4990
   -16.1796 -16.0027 -15.9720 -15.4203 -15.4061 -15.0923 -15.0528 -15.0274
   -15.0034 -14.8476 -14.5989 -14.3478 -13.6670 -13.3053 -13.0417 -12.8710
   -12.3507 -12.1281 -12.0303 -11.8907 -11.7818 -11.5991 -11.4602 -11.4253
   -11.3911 -11.3577 -11.2814 -11.1569 -11.1059 -11.0292 -10.9993 -10.9808
   -10.9164 -10.6081 -10.5581 -10.5004 -10.3951 -10.2931 -10.1865 -10.0536
    -9.9574  -9.9380  -9.8852  -9.8551  -9.7809  -9.6860  -9.4440  -9.4207
    -9.2632  -9.1582  -8.9020  -8.6405  -8.4319  -8.2888  -8.1941  -7.8360
    -7.3331  -7.1866  -7.1093  -6.7675  -6.5752  -6.1175  -5.9058  -5.5965

     highest occupied level (ev):    -5.5965

!    total energy              =    -725.69001096 Ry
     estimated scf accuracy    <       0.00000071 Ry

     The total energy is the sum of the following terms:
     one-electron contribution =   -7209.32086953 Ry
     hartree contribution      =    3627.46335080 Ry
     xc contribution           =    -206.78088257 Ry
     ewald contribution        =    3063.07248308 Ry
     DFT-D3 Dispersion         =      -0.12409274 Ry

     convergence has been achieved in  15 iterations

     negative rho (up, down):  1.400E-02 0.000E+00

     Forces acting on atoms (cartesian axes, Ry/au):

     atom    1 type  1   force =     0.00386826    0.06942614    0.02838524
     atom    2 type  1   force =    -0.00867678    0.00614647   -0.00339560
     atom    3 type  1   force =     0.01008794   -0.00030998    0.00621117
     atom    4 type  2   force =     0.03338810    0.05001731    0.01917269
     atom    5 type  3   force =     0.00707042   -0.00395600    0.00328238
     atom    6 type  4   force =     0.00501972    0.00363607    0.00449744
     atom    7 type  3   force =     0.00224233    0.00366521    0.00283376
     atom    8 type  4   force =     0.00013094    0.00672435    0.00182291
     atom    9 type  3   force =     0.00558888   -0.00358280   -0.00198944
     atom   10 type  3   force =    -0.00316338    0.00035069   -0.00486406
     atom   11 type  4   force =    -0.00333614   -0.00188733   -0.00261143
     atom   12 type  3   force =     0.00719624   -0.00666028    0.00580308
     atom   13 type  4   force =    -0.00102783   -0.00684586   -0.00148161
     atom   14 type  3   force =    -0.01438498    0.01264471   -0.01040941
     atom   15 type  3   force =     0.03351587   -0.01095643    0.02190907
     atom   16 type  4   force =    -0.00224446   -0.00095303   -0.00180592
     atom   17 type  3   force =    -0.02234001    0.00108338   -0.01513270
     atom   18 type  4   force =     0.00170679    0.00791773    0.00382104
     atom   19 type  3   force =    -0.00551243   -0.08908112   -0.03686167
     atom   20 type  3   force =     0.00325356    0.00541892    0.00397718
     atom   21 type  3   force =    -0.00385113   -0.00467299   -0.00616760
     atom   22 type  4   force =     0.00014055   -0.00393798   -0.00375569
     atom   23 type  3   force =     0.00178707   -0.00190260    0.00210311
     atom   24 type  4   force =     0.00500838   -0.00463633   -0.00076925
     atom   25 type  3   force =    -0.01339188   -0.00395363   -0.00745680
     atom   26 type  3   force =     0.00551588    0.00259594    0.00413556
     atom   27 type  4   force =    -0.00100231    0.00540097    0.00526727
     atom   28 type  3   force =    -0.00365445    0.00273180   -0.00207056
     atom   29 type  4   force =    -0.00472747    0.00359818    0.00033284
     atom   30 type  3   force =    -0.03153968   -0.05525460   -0.01785948
     atom   31 type  4   force =     0.00006471    0.00609739   -0.00174072
     atom   32 type  3   force =     0.01203030    0.00718258    0.01179478
     atom   33 type  3   force =    -0.00755387   -0.00469657   -0.00560818
     atom   34 type  4   force =    -0.00094496   -0.00586901   -0.00075731
     atom   35 type  3   force =     0.00254732    0.00018762    0.00361221
     atom   36 type  4   force =     0.00053921   -0.00597133    0.00221187
     atom   37 type  3   force =    -0.00865251   -0.00358174   -0.00587636
     atom   38 type  3   force =     0.00305058    0.00109230    0.00138706
     atom   39 type  4   force =    -0.00204808    0.00724991    0.00102518
     atom   40 type  3   force =    -0.00501784   -0.00160950   -0.00268176
     atom   41 type  4   force =    -0.00455670    0.00606642   -0.00272223
     atom   42 type  3   force =     0.01553002    0.00373363   -0.00230036
     atom   43 type  5   force =     0.00272007    0.00024245   -0.00232893
     atom   44 type  5   force =    -0.01342028    0.00081644   -0.00207855
     atom   45 type  5   force =     0.01090166    0.00250166    0.00287136
     atom   46 type  3   force =    -0.01007470    0.00601781    0.00112774
     atom   47 type  5   force =     0.00539404   -0.00257033    0.00168946
     atom   48 type  5   force =     0.00553400    0.00042271    0.00086968
     atom   49 type  5   force =    -0.01271093   -0.00007934    0.00258155
     The Martyna-Tuckerman correction term to forces
     atom    1 type  1   force =     0.00043235   -0.00238766    0.00016927
     atom    2 type  1   force =    -0.00442163   -0.00114039   -0.00221391
     atom    3 type  1   force =     0.00773165   -0.00066795    0.00025241
     atom    4 type  2   force =    -0.00005722   -0.00168100   -0.00003123
     atom    5 type  3   force =    -0.00361705   -0.00120161   -0.00016372
     atom    6 type  4   force =    -0.00004066   -0.00034459   -0.00005296
     atom    7 type  3   force =    -0.01184288   -0.00112042    0.00075540
     atom    8 type  4   force =    -0.00293170   -0.00034570    0.00017456
     atom    9 type  3   force =     0.00797364   -0.00068507    0.00106148
     atom   10 type  3   force =     0.00746012   -0.00041852    0.00084167
     atom   11 type  4   force =    -0.00093428   -0.00010934   -0.00154144
     atom   12 type  3   force =    -0.01117734   -0.00064330    0.00081815
     atom   13 type  4   force =    -0.00271948   -0.00013542    0.00019613
     atom   14 type  3   force =    -0.00261489   -0.00110226   -0.00009115
     atom   15 type  3   force =     0.00022145   -0.00124373   -0.00005857
     atom   16 type  4   force =     0.00007879   -0.00031160    0.00000647
     atom   17 type  3   force =     0.00021593   -0.00137684   -0.00005490
     atom   18 type  4   force =     0.00003920   -0.00035435   -0.00002267
     atom   19 type  3   force =     0.00022663   -0.00149606    0.00001579
     atom   20 type  3   force =     0.00014806   -0.00154322    0.00000300
     atom   21 type  3   force =     0.00004555   -0.00163455    0.00004788
     atom   22 type  4   force =     0.00000542   -0.00043595    0.00003333
     atom   23 type  3   force =    -0.00004815   -0.00159145    0.00001709
     atom   24 type  4   force =    -0.00004671   -0.00041163    0.00001083
     atom   25 type  3   force =     0.00001707   -0.00145874   -0.00001396
     atom   26 type  3   force =     0.00011892   -0.00144994   -0.00000173
     atom   27 type  4   force =     0.00003840   -0.00034977    0.00000901
     atom   28 type  3   force =     0.00015153   -0.00149229   -0.00001490
     atom   29 type  4   force =     0.00004184   -0.00036923   -0.00000376
     atom   30 type  3   force =     0.00003714   -0.00119276    0.00002409
     atom   31 type  4   force =     0.00003535   -0.00030618    0.00001768
     atom   32 type  3   force =     0.00048405   -0.00101058    0.00001712
     atom   33 type  3   force =     0.01170728   -0.00092432   -0.00027830
     atom   34 type  4   force =     0.00087378   -0.00028298   -0.00004105
     atom   35 type  3   force =    -0.00053783   -0.00047044   -0.00123112
     atom   36 type  4   force =    -0.00330398   -0.00007801   -0.00030344
     atom   37 type  3   force =     0.00662008   -0.00042100   -0.00132365
     atom   38 type  3   force =     0.00898565   -0.00066097   -0.00131658
     atom   39 type  4   force =    -0.00201149   -0.00016267   -0.00029067
     atom   40 type  3   force =     0.00217355   -0.00085424    0.00006743
     atom   41 type  4   force =     0.00010988   -0.00022701    0.00004383
     atom   42 type  3   force =    -0.00379538   -0.00053814   -0.00128695
     atom   43 type  5   force =     0.01313770   -0.00111817   -0.00227786
     atom   44 type  5   force =    -0.01731188   -0.00080616    0.01018623
     atom   45 type  5   force =     0.02383167   -0.00086395   -0.00256278
     atom   46 type  3   force =    -0.01351040   -0.00084231    0.00102505
     atom   47 type  5   force =     0.01236192   -0.00088987    0.00230560
     atom   48 type  5   force =     0.01063020   -0.00125738   -0.00565928
     atom   49 type  5   force =    -0.03227861   -0.00182792    0.00144090
     The non-local contrib.  to forces
     atom    1 type  1   force =     0.12574499    2.27181755    0.90319448
     atom    2 type  1   force =    -0.57373218   -0.70161279    2.19535594
     atom    3 type  1   force =     0.29067091    0.72408773   -2.26347098
     atom    4 type  2   force =    -0.69189732    1.30076972   -0.56832175
     atom    5 type  3   force =    -0.00572893   -0.00208602   -0.00255962
     atom    6 type  4   force =    -0.05283167   -0.03224356   -0.04930305
     atom    7 type  3   force =    -0.03288896   -0.03392551   -0.02393337
     atom    8 type  4   force =     0.00277800   -0.07854952   -0.01501862
     atom    9 type  3   force =    -0.38059735    0.35428922   -0.27856301
     atom   10 type  3   force =     0.00515332    0.04855771    0.01498622
     atom   11 type  4   force =     0.05406604    0.02921374    0.05042381
     atom   12 type  3   force =    -0.01375260    0.02155686   -0.00450146
     atom   13 type  4   force =    -0.00171955    0.07753260    0.01661427
     atom   14 type  3   force =     0.00685128   -0.00687864    0.00358773
     atom   15 type  3   force =    -0.04499844    0.06494879   -0.01166661
     atom   16 type  4   force =     0.00102893    0.07637199    0.01980119
     atom   17 type  3   force =     0.02016202    0.00855621    0.02281410
     atom   18 type  4   force =    -0.01108587   -0.07366364   -0.02410066
     atom   19 type  3   force =    -0.01223293   -0.16302532   -0.06946253
     atom   20 type  3   force =    -0.02399539    0.01823618    0.00566857
     atom   21 type  3   force =    -0.01412670    0.06029504    0.01563642
     atom   22 type  4   force =     0.00053748    0.06385299    0.04891438
     atom   23 type  3   force =     0.00439617    0.05622884   -0.00708115
     atom   24 type  4   force =    -0.06465450    0.04601058   -0.00224846
     atom   25 type  3   force =     0.16257056    0.01663167    0.17982995
     atom   26 type  3   force =     0.02920136   -0.01242601    0.01716726
     atom   27 type  4   force =     0.00560989   -0.05931082   -0.05114628
     atom   28 type  3   force =    -0.01612036    0.00252879    0.00556391
     atom   29 type  4   force =     0.06413010   -0.04519246   -0.00341932
     atom   30 type  3   force =    -0.01594509   -0.16314117    0.00170139
     atom   31 type  4   force =     0.03463867   -0.05888260    0.03356312
     atom   32 type  3   force =    -0.02543650    0.02131413   -0.01634854
     atom   33 type  3   force =     0.00459734    0.06654316    0.00303721
     atom   34 type  4   force =     0.02148732    0.07554428    0.01847660
     atom   35 type  3   force =     0.00266017    0.06248573    0.01517687
     atom   36 type  4   force =    -0.04517506    0.05779944   -0.03136596
     atom   37 type  3   force =     0.43758537    0.11491148    0.37384134
     atom   38 type  3   force =     0.03177884   -0.06031377   -0.00173867
     atom   39 type  4   force =    -0.01925120   -0.07587258   -0.01840920
     atom   40 type  3   force =     0.00740130    0.00273296    0.01636830
[...]
     atom   19 type  3   force =    -0.00022623   -0.00416785   -0.00184946
     atom   20 type  3   force =     0.00160318   -0.00019446    0.00084928
     atom   21 type  3   force =     0.00042661    0.00059061    0.00125108
     atom   22 type  4   force =     0.00000000    0.00000000    0.00000000
     atom   23 type  3   force =    -0.00200504    0.00004051   -0.00028206
     atom   24 type  4   force =     0.00000000    0.00000000    0.00000000
     atom   25 type  3   force =    -0.00393126   -0.00056275   -0.00428945
     atom   26 type  3   force =    -0.00067038   -0.00128730   -0.00161967
     atom   27 type  4   force =     0.00000000    0.00000000    0.00000000
     atom   28 type  3   force =     0.00188290   -0.00091721    0.00027636
     atom   29 type  4   force =     0.00000000    0.00000000    0.00000000
     atom   30 type  3   force =    -0.00165483   -0.00278973   -0.00125931
     atom   31 type  4   force =     0.00000000    0.00000000    0.00000000
     atom   32 type  3   force =     0.00152998    0.00019393    0.00109101
     atom   33 type  3   force =     0.00074100    0.00060880    0.00049701
     atom   34 type  4   force =     0.00000000    0.00000000    0.00000000
     atom   35 type  3   force =    -0.00132635    0.00074912   -0.00132607
     atom   36 type  4   force =     0.00000000    0.00000000    0.00000000
     atom   37 type  3   force =    -0.01114493   -0.00295143   -0.00901078
     atom   38 type  3   force =    -0.00090516   -0.00124691   -0.00029990
     atom   39 type  4   force =     0.00000000    0.00000000    0.00000000
     atom   40 type  3   force =     0.00113201   -0.00155318    0.00062911
     atom   41 type  4   force =     0.00000000    0.00000000    0.00000000
     atom   42 type  3   force =    -0.00437706   -0.00242264    0.00178566
     atom   43 type  5   force =    -0.00106261    0.00915370   -0.00246229
     atom   44 type  5   force =     0.00683062   -0.00034918    0.00742636
     atom   45 type  5   force =     0.00394533   -0.00443861   -0.00768958
     atom   46 type  3   force =     0.00455616   -0.00142609   -0.00207340
     atom   47 type  5   force =    -0.00485347   -0.00798493    0.00257912
     atom   48 type  5   force =    -0.00541601    0.00591560   -0.00619729
     atom   49 type  5   force =     0.00096813    0.00494658    0.00813703
     The Hubbard contrib.    to forces
     atom    1 type  1   force =     0.00000000    0.00000000    0.00000000
     atom    2 type  1   force =     0.00000000    0.00000000    0.00000000
     atom    3 type  1   force =     0.00000000    0.00000000    0.00000000
     atom    4 type  2   force =     0.00000000    0.00000000    0.00000000
     atom    5 type  3   force =     0.00000000    0.00000000    0.00000000
     atom    6 type  4   force =     0.00000000    0.00000000    0.00000000
     atom    7 type  3   force =     0.00000000    0.00000000    0.00000000
     atom    8 type  4   force =     0.00000000    0.00000000    0.00000000
     atom    9 type  3   force =     0.00000000    0.00000000    0.00000000
     atom   10 type  3   force =     0.00000000    0.00000000    0.00000000
     atom   11 type  4   force =     0.00000000    0.00000000    0.00000000
     atom   12 type  3   force =     0.00000000    0.00000000    0.00000000
     atom   13 type  4   force =     0.00000000    0.00000000    0.00000000
     atom   14 type  3   force =     0.00000000    0.00000000    0.00000000
     atom   15 type  3   force =     0.00000000    0.00000000    0.00000000
     atom   16 type  4   force =     0.00000000    0.00000000    0.00000000
     atom   17 type  3   force =     0.00000000    0.00000000    0.00000000
     atom   18 type  4   force =     0.00000000    0.00000000    0.00000000
     atom   19 type  3   force =     0.00000000    0.00000000    0.00000000
     atom   20 type  3   force =     0.00000000    0.00000000    0.00000000
     atom   21 type  3   force =     0.00000000    0.00000000    0.00000000
     atom   22 type  4   force =     0.00000000    0.00000000    0.00000000
     atom   23 type  3   force =     0.00000000    0.00000000    0.00000000
     atom   24 type  4   force =     0.00000000    0.00000000    0.00000000
     atom   25 type  3   force =     0.00000000    0.00000000    0.00000000
     atom   26 type  3   force =     0.00000000    0.00000000    0.00000000
     atom   27 type  4   force =     0.00000000    0.00000000    0.00000000
     atom   28 type  3   force =     0.00000000    0.00000000    0.00000000
     atom   29 type  4   force =     0.00000000    0.00000000    0.00000000
     atom   30 type  3   force =     0.00000000    0.00000000    0.00000000
     atom   31 type  4   force =     0.00000000    0.00000000    0.00000000
     atom   32 type  3   force =     0.00000000    0.00000000    0.00000000
     atom   33 type  3   force =     0.00000000    0.00000000    0.00000000
     atom   34 type  4   force =     0.00000000    0.00000000    0.00000000
     atom   35 type  3   force =     0.00000000    0.00000000    0.00000000
     atom   36 type  4   force =     0.00000000    0.00000000    0.00000000
     atom   37 type  3   force =     0.00000000    0.00000000    0.00000000
     atom   38 type  3   force =     0.00000000    0.00000000    0.00000000
     atom   39 type  4   force =     0.00000000    0.00000000    0.00000000
     atom   40 type  3   force =     0.00000000    0.00000000    0.00000000
     atom   41 type  4   force =     0.00000000    0.00000000    0.00000000
     atom   42 type  3   force =     0.00000000    0.00000000    0.00000000
     atom   43 type  5   force =     0.00000000    0.00000000    0.00000000
     atom   44 type  5   force =     0.00000000    0.00000000    0.00000000
     atom   45 type  5   force =     0.00000000    0.00000000    0.00000000
     atom   46 type  3   force =     0.00000000    0.00000000    0.00000000
     atom   47 type  5   force =     0.00000000    0.00000000    0.00000000
     atom   48 type  5   force =     0.00000000    0.00000000    0.00000000
     atom   49 type  5   force =     0.00000000    0.00000000    0.00000000
     The SCF correction term to forces
     atom    1 type  1   force =     0.00001244    0.00002379    0.00001698
     atom    2 type  1   force =    -0.00000059    0.00000069    0.00001490
     atom    3 type  1   force =     0.00000953   -0.00000166    0.00000390
     atom    4 type  2   force =    -0.00004574   -0.00001918   -0.00004350
     atom    5 type  3   force =    -0.00000634    0.00001920   -0.00000106
     atom    6 type  4   force =     0.00000211    0.00000107    0.00000227
     atom    7 type  3   force =    -0.00000962   -0.00000003   -0.00000650
     atom    8 type  4   force =    -0.00000166   -0.00000212   -0.00000091
     atom    9 type  3   force =    -0.00000102    0.00000140    0.00000090
     atom   10 type  3   force =    -0.00000639    0.00001065   -0.00000195
     atom   11 type  4   force =     0.00000154    0.00000270    0.00000245
     atom   12 type  3   force =    -0.00001989    0.00000462   -0.00001259
     atom   13 type  4   force =    -0.00000139   -0.00000091   -0.00000044
     atom   14 type  3   force =    -0.00000061    0.00000666    0.00000053
     atom   15 type  3   force =     0.00002343   -0.00001181    0.00001649
     atom   16 type  4   force =     0.00000283   -0.00000191    0.00000231
     atom   17 type  3   force =     0.00003025   -0.00000213    0.00002610
     atom   18 type  4   force =     0.00000560   -0.00000274    0.00000501
     atom   19 type  3   force =     0.00001191    0.00001913    0.00001850
     atom   20 type  3   force =    -0.00000181    0.00000471    0.00000131
     atom   21 type  3   force =    -0.00000313    0.00001148    0.00001012
     atom   22 type  4   force =    -0.00000071    0.00000462    0.00000334
     atom   23 type  3   force =    -0.00002302   -0.00000018   -0.00000703
     atom   24 type  4   force =    -0.00000790    0.00000224   -0.00000199
     atom   25 type  3   force =    -0.00002200   -0.00000890   -0.00001668
     atom   26 type  3   force =    -0.00001852   -0.00000374   -0.00001131
     atom   27 type  4   force =    -0.00000487   -0.00000424   -0.00000597
     atom   28 type  3   force =    -0.00000673    0.00000325   -0.00000381
     atom   29 type  4   force =     0.00000284   -0.00000215   -0.00000136
     atom   30 type  3   force =    -0.00004450   -0.00002692   -0.00003495
     atom   31 type  4   force =    -0.00001049   -0.00000316   -0.00000787
     atom   32 type  3   force =    -0.00001495   -0.00001480   -0.00000859
     atom   33 type  3   force =    -0.00000714   -0.00001470   -0.00000220
     atom   34 type  4   force =    -0.00000353   -0.00000528   -0.00000279
     atom   35 type  3   force =     0.00000473   -0.00000378    0.00000710
     atom   36 type  4   force =     0.00000225   -0.00000289    0.00000197
     atom   37 type  3   force =     0.00001125    0.00000099    0.00001025
     atom   38 type  3   force =     0.00000968    0.00000619    0.00000965
     atom   39 type  4   force =     0.00000214    0.00000434    0.00000185
     atom   40 type  3   force =    -0.00000509    0.00000372    0.00000022
     atom   41 type  4   force =    -0.00000486    0.00000461   -0.00000321
     atom   42 type  3   force =     0.00000313    0.00000579   -0.00000060
     atom   43 type  5   force =     0.00000594    0.00002028   -0.00000445
     atom   44 type  5   force =     0.00000847    0.00001030    0.00001246
     atom   45 type  5   force =     0.00002088    0.00000528   -0.00000672
     atom   46 type  3   force =     0.00000510    0.00000348    0.00000142
     atom   47 type  5   force =     0.00001883    0.00000647    0.00000368
     atom   48 type  5   force =     0.00001209    0.00000652    0.00000442
     atom   49 type  5   force =    -0.00000452   -0.00000291   -0.00000611

     DFT-D3 dispersion contribution to forces:
     atom    1 type  1   force =     0.00005364    0.00055539    0.00020676
     atom    2 type  1   force =     0.00023921   -0.00025919    0.00026445
     atom    3 type  1   force =    -0.00029495   -0.00003749   -0.00033037
     atom    4 type  2   force =    -0.00006432    0.00018734   -0.00004056
     atom    5 type  3   force =     0.00010020   -0.00030287    0.00007163
     atom    6 type  4   force =    -0.00005972   -0.00037123   -0.00013137
     atom    7 type  3   force =    -0.00023496   -0.00036472   -0.00002580
     atom    8 type  4   force =    -0.00017144   -0.00035226   -0.00010902
     atom    9 type  3   force =    -0.00003627    0.00000597    0.00009119
     atom   10 type  3   force =     0.00005242    0.00031217    0.00034646
     atom   11 type  4   force =     0.00013943    0.00027871    0.00027687
     atom   12 type  3   force =     0.00014773    0.00019117    0.00021473
     atom   13 type  4   force =     0.00012692    0.00032114    0.00016633
     atom   14 type  3   force =     0.00016914   -0.00001662    0.00013773
     atom   15 type  3   force =     0.00004632    0.00037177    0.00011631
     atom   16 type  4   force =     0.00001887    0.00027891    0.00006253
     atom   17 type  3   force =    -0.00001073    0.00014926    0.00004385
     atom   18 type  4   force =    -0.00000852   -0.00019943   -0.00002983
     atom   19 type  3   force =     0.00010667    0.00035091    0.00019025
     atom   20 type  3   force =    -0.00016904    0.00017244   -0.00008642
     atom   21 type  3   force =    -0.00021749    0.00030183    0.00005365
     atom   22 type  4   force =    -0.00016299    0.00031851    0.00015871
     atom   23 type  3   force =    -0.00018800    0.00035928    0.00007180
     atom   24 type  4   force =    -0.00021884    0.00033109    0.00011011
     atom   25 type  3   force =     0.00001145   -0.00004094    0.00001610
     atom   26 type  3   force =     0.00018218   -0.00010146   -0.00018803
     atom   27 type  4   force =     0.00027006   -0.00025189   -0.00017140
     atom   28 type  3   force =    -0.00000070   -0.00013029   -0.00028721
     atom   29 type  4   force =     0.00013452   -0.00029194   -0.00026281
     atom   30 type  3   force =     0.00019826   -0.00005452    0.00018835
     atom   31 type  4   force =    -0.00000959   -0.00023943    0.00007553
     atom   32 type  3   force =    -0.00018688   -0.00008231   -0.00013592
     atom   33 type  3   force =    -0.00018378    0.00015719   -0.00018587
     atom   34 type  4   force =    -0.00014320    0.00035540   -0.00010638
     atom   35 type  3   force =    -0.00000483    0.00041496   -0.00020202
     atom   36 type  4   force =    -0.00008957    0.00037594   -0.00013610
     atom   37 type  3   force =     0.00006001    0.00003113   -0.00006250
     atom   38 type  3   force =     0.00022548   -0.00033934   -0.00008191
     atom   39 type  4   force =     0.00010279   -0.00039122   -0.00004516
     atom   40 type  3   force =     0.00003813   -0.00027849   -0.00003533
     atom   41 type  4   force =     0.00008808   -0.00037437    0.00005934
     atom   42 type  3   force =    -0.00044266   -0.00013163   -0.00014397
     atom   43 type  5   force =    -0.00035325   -0.00030181   -0.00003288
     atom   44 type  5   force =    -0.00031034   -0.00005848   -0.00017463
     atom   45 type  5   force =    -0.00053303   -0.00003566    0.00012174
     atom   46 type  3   force =     0.00042345   -0.00025929    0.00006844
     atom   47 type  5   force =     0.00052027   -0.00004860   -0.00006589
     atom   48 type  5   force =     0.00027133   -0.00020484    0.00012223
     atom   49 type  5   force =     0.00036852   -0.00030019   -0.00016371

     Total force =     0.031977     Total SCF correction =     0.000144
     Energy error            =      9.8E-04 Ry
     Gradient error          =      9.2E-03 Ry/Bohr

     bfgs converged in   7 scf cycles and   6 bfgs steps
     (criteria: energy <  1.0E-03 Ry, force <  1.0E-02 Ry/Bohr)

     End of BFGS Geometry Optimization

     Final energy             =    -725.7016748143 Ry

     File ./outdir/4amp34iso.bfgs deleted, as requested
Begin final coordinates

ATOMIC_POSITIONS (angstrom)
O            13.3313756718        5.3034501837        9.5292832535
O             7.5746578217       10.5650826310        6.4167384645
O            22.5317669414        9.8599840365       17.0695463245
N            17.7661499218        7.5967754199       13.4639717365
C            10.3857455425        9.4721188497        8.5298982138
H            11.1153677496        9.9122809876        9.2163330927
C             9.4246013210       10.2924072759        7.9479345839
H             9.3836447684       11.3642128351        8.1544192348
C             8.5050074645        9.7261561259        7.0650821446
C             8.5033854925        8.3662755192        6.7650023434
H             7.7522679458        7.9633523331        6.0815181232
C             9.4576596682        7.5505617138        7.3653459043
H             9.4794015905        6.4792870684        7.1388403551
C            10.4237381328        8.0898470357        8.2428778548
C            11.4202736113        7.1921192417        8.7949739534
H            11.3536453856        6.1429396715        8.4899515339
C            12.4421082945        7.5049673445        9.6215954880
H            12.6011439071        8.5271815760        9.9705883528
C            13.4066318368        6.4498571569        9.9993762987
C            14.5122273669        6.8146353801       10.9273907527
C            15.6455001246        5.9806710184       10.9470992318
H            15.6581341726        5.1154267379       10.2809913230
C            16.7031305143        6.2493132885       11.7963030229
H            17.5954220255        5.6197352251       11.8175447536
C            16.6587824957        7.3717290900       12.6479784799
C            15.5103000254        8.1916860669       12.6644744540
H            15.4414923913        9.0193650808       13.3767437815
C            14.4541919888        7.9180709618       11.8004621944
H            13.5597052673        8.5455125502       11.8410216087
C            18.1567792019        8.7963990439       13.7052653819
H            17.6765001437        9.6748526346       13.2325975080
C            19.2849125554        9.0728380951       14.5819102598
C            20.0509550614        8.0203776773       15.1216981181
H            19.7780672708        6.9903724844       14.8789226473
C            21.1353406319        8.3011411977       15.9369926917
H            21.7481580934        7.5066605750       16.3674370917
C            21.4531053168        9.6345036740       16.2049315320
C            20.7052332321       10.6973506020       15.6987202403
H            20.9507705688       11.7292364563       15.9512453633
C            19.6200910384       10.4046067049       14.8745212461
H            19.0231615540       11.2182180720       14.4491931753
C            23.6455989690       10.4465435586       16.5664634782
F            23.4615874243       11.7505297206       16.2049048961
F            24.5592610283       10.4094130310       17.5448809180
F            24.1672298094        9.8098865962       15.4752773898
C             6.4269706701       10.8672552304        7.0834609232
F             5.7452412763        9.7449983069        7.4309364529
F             5.6940923558       11.6379796157        6.2638950975
F             6.6067073581       11.5652063174        8.2421137302
End final coordinates



     Writing all to output data dir ./outdir/4amp34iso.save/

     init_run     :     13.02s CPU     13.51s WALL (       1 calls)
     electrons    :   2127.36s CPU   3059.24s WALL (       7 calls)
     update_pot   :     31.65s CPU     32.05s WALL (       6 calls)
     forces       :     34.09s CPU     35.78s WALL (       7 calls)
     force_dftd3  :      0.13s CPU      0.16s WALL (       7 calls)

     Called by init_run:
     wfcinit      :      0.71s CPU      0.82s WALL (       1 calls)
     potinit      :      2.93s CPU      2.99s WALL (       1 calls)
     hinit0       :      2.96s CPU      3.08s WALL (       1 calls)

     Called by electrons:
     c_bands      :    210.19s CPU    211.50s WALL (     127 calls)
     sum_band     :     86.60s CPU    103.04s WALL (     127 calls)
     v_of_rho     :     36.93s CPU     41.05s WALL (     134 calls)
     newd         :     43.57s CPU     55.42s WALL (     134 calls)
     mix_rho      :   1745.54s CPU   2640.23s WALL (     127 calls)
     energy_dftd3 :      0.02s CPU      0.02s WALL (       7 calls)

     Called by c_bands:
     init_us_2    :      2.05s CPU      2.07s WALL (     255 calls)
     init_us_2:cp :      2.04s CPU      2.06s WALL (     255 calls)
     regterg      :    207.72s CPU    208.71s WALL (     127 calls)

     Called by *egterg:
     rdiaghg      :      8.67s CPU      8.78s WALL (     984 calls)
     h_psi        :    149.77s CPU    150.54s WALL (     991 calls)
     s_psi        :     10.81s CPU     10.84s WALL (     991 calls)
     g_psi        :      0.27s CPU      0.27s WALL (     863 calls)

     Called by h_psi:
     h_psi:calbec :     14.19s CPU     14.28s WALL (     991 calls)
     vloc_psi     :    123.93s CPU    124.60s WALL (     991 calls)
     add_vuspsi   :     10.62s CPU     10.64s WALL (     991 calls)

     General routines
     calbec       :     18.66s CPU     18.76s WALL (    1146 calls)
     fft          :     39.06s CPU     47.25s WALL (    1536 calls)
     ffts         :   1024.62s CPU   1893.47s WALL (  225815 calls)
     fftw         :     97.25s CPU     97.74s WALL (   42420 calls)
     interpolate  :      4.52s CPU      5.52s WALL (     134 calls)

     Parallel routines

     PWSCF        :  36m49.50s CPU  52m26.12s WALL


   This run was terminated on:  18:11: 4   9Mar2024

=------------------------------------------------------------------------------=
   JOB DONE.
=------------------------------------------------------------------------------=
